# vtk DataFile Version 5.1
Generated by LIGGGHTS
ASCII
DATASET POLYDATA
POINTS 17850 float
-0.0166467 -0.0229827 0.00201134 -0.0194021 -0.0215953 0.00188566 -0.0182128 -0.0215288 0.00186284 
0.0171277 -0.0217426 0.00180028 -0.0203631 -0.0209861 0.00227285 0.0202462 -0.019428 0.000873687 
-0.0212733 -0.0203714 0.00202972 -0.0200672 -0.0200145 0.00177998 0.0218223 -0.0183981 0.00135212 
-0.0210774 -0.019337 0.00187027 -0.0187169 -0.0194041 0.00140603 -0.0174813 -0.0193837 0.00191257 
-0.0158693 -0.0199702 0.00195514 -0.0126239 -0.0192017 0.00101232 0.0181207 -0.0200765 0.00177258 
0.0208292 -0.0185652 0.00174231 0.0228982 -0.0175785 0.0013719 -0.0225419 -0.0186917 0.0020662 
-0.0211238 -0.0181997 0.0022562 -0.0199666 -0.0189486 0.00195363 -0.0173346 -0.0181941 0.0023197 
-0.00974021 -0.0186654 0.00146217 0.0216009 -0.0168813 0.0019185 -0.0233243 -0.0177483 0.00205701 
-0.0220942 -0.0176191 0.00199861 -0.0201099 -0.0177875 0.00205511 -0.0157718 -0.0188283 0.00151042 
-0.00971076 -0.0174348 0.00224615 0.0132409 -0.0183938 0.00150068 -0.0242793 -0.0163588 0.0021916 
-0.0207859 -0.0169376 0.00256906 -0.0198433 -0.0163521 0.00236023 -0.0164653 -0.0174505 0.00205446 
-0.0152994 -0.0177644 0.001888 -0.0124123 -0.0170917 0.00243709 0.0194091 -0.0159013 0.00161561 
0.0250153 -0.0152832 0.000952081 -0.0229102 -0.0162852 0.00228366 -0.0218931 -0.0168209 0.0027566 
-0.0178109 -0.0158568 0.00235304 -0.0163 -0.0160861 0.0021542 -0.0150822 -0.0162183 0.0021247 
-0.0110208 -0.0165044 0.00226761 0.0110916 -0.0174393 0.00137879 0.0124063 -0.0177075 0.00122644 
0.0164891 -0.0173291 0.00155068 0.0179394 -0.0166036 0.000974123 -0.0251662 -0.0148165 0.0026189 
-0.0217184 -0.0158337 0.00232345 -0.0189057 -0.0156387 0.00235916 -0.0121552 -0.0162491 0.0017612 
0.00378564 -0.0164505 0.00131917 0.00602434 -0.0163561 0.0023475 0.0103816 -0.0159763 0.00254268 
0.0114109 -0.0164881 0.00238375 0.0135243 -0.0151535 0.00251371 0.0143223 -0.0159958 0.00195464 
0.0176427 -0.0150279 0.00177974 0.0203232 -0.0150224 0.00137397 0.0229706 -0.0148237 0.00196183 
-0.025228 -0.0136301 0.00278164 -0.0241021 -0.0139384 0.0023395 -0.0225591 -0.0150981 0.0026077 
-0.0185417 -0.0145569 0.00231953 -0.0166723 -0.0150129 0.00201197 -0.015601 -0.015206 0.00202768 
-0.01444 -0.0152048 0.00216692 -0.0114417 -0.0150733 0.00216972 -0.00982517 -0.0135278 0.00144122 
0.00683425 -0.0155004 0.00270275 0.0119417 -0.0147399 0.00269248 0.0142921 -0.0138615 0.00219754 
0.0187507 -0.0138284 0.00250722 -0.0226139 -0.0135754 0.00283458 -0.0215964 -0.0139958 0.00243909 
-0.0201283 -0.0140616 0.00231335 -0.0136124 -0.0141665 0.00244576 -0.0126684 -0.0150962 0.00220466 
-0.0110312 -0.0138459 0.00213882 0.00472466 -0.0146162 0.00203911 0.00559272 -0.0151753 0.00274264 
0.00858108 -0.0148159 0.00265949 0.00966066 -0.0142424 0.00250499 0.0154751 -0.0136951 0.00223601 
0.0164559 -0.0129347 0.00233731 0.0175806 -0.0137506 0.00195878 0.0193832 -0.0128389 0.00183321 
0.0224276 -0.0138046 0.00197338 0.0238391 -0.0142647 0.00259862 0.0247583 -0.0140843 0.0016443 
-0.0255716 -0.0119871 0.00254118 -0.0246375 -0.0126568 0.00233834 -0.0226553 -0.0123299 0.00249018 
-0.0209675 -0.0129147 0.00257994 -0.01904 -0.0134324 0.00224124 -0.0164951 -0.0133522 0.00226773 
-0.0146981 -0.0139859 0.00205093 -0.0121676 -0.0138711 0.00242897 0.00616848 -0.014213 0.00238228 
0.0120079 -0.0136129 0.00247912 0.0141139 -0.0127728 0.00159862 0.0182076 -0.0126402 0.00183445 
0.0210454 -0.0132175 0.00127043 -0.0238638 -0.0108094 0.00281795 -0.0218394 -0.0116785 0.00270734 
-0.0198253 -0.0122642 0.00258962 -0.0186774 -0.0122628 0.00252899 -0.0155607 -0.0123134 0.00230538 
-0.014306 -0.0128381 0.00245421 -0.0128248 -0.0128032 0.00260831 -0.0104527 -0.012873 0.00249801 
0.00516546 -0.0129852 0.0025461 0.00714015 -0.011949 0.00247953 0.00826943 -0.012069 0.00212713 
0.010439 -0.0132968 0.00239051 0.0114119 -0.0125068 0.00268843 0.0125084 -0.0121446 0.00194314 
0.0145893 -0.0113519 0.00197365 0.0151439 -0.0124923 0.00211233 0.0166766 -0.011383 0.00227148 
0.0254833 -0.0126271 0.00198532 0.0263713 -0.012541 0.00101788 -0.0270245 -0.0112382 0.00286162 
-0.0249068 -0.0111377 0.00327833 -0.020686 -0.0114608 0.00289069 -0.0174939 -0.012097 0.00277439 
-0.0130207 -0.0112447 0.00267817 -0.0118452 -0.0119279 0.00212983 -0.010782 -0.0116573 0.00234553 
-0.00883565 -0.0121754 0.00234938 0.00201978 -0.0128028 0.0020001 0.00357031 -0.0118978 0.00323999 
0.00500572 -0.0118703 0.00282513 0.00587479 -0.011192 0.00311354 0.00804618 -0.0111672 0.00275334 
0.015451 -0.0106227 0.00139881 0.0168555 -0.0103293 0.00224143 0.0173433 -0.0110291 0.00145012 
0.0201644 -0.011423 0.00122735 0.0237958 -0.0117785 0.00140942 0.0252404 -0.0115802 0.00141162 
0.0271817 -0.0110711 0.00108147 -0.0263605 -0.00957651 0.00280387 -0.0242248 -0.00969106 0.00354115 
-0.0229486 -0.0101105 0.00357197 -0.0225301 -0.00926724 0.0027749 -0.0211358 -0.0104788 0.00215903 
-0.0196362 -0.0109493 0.00290137 -0.015147 -0.0112209 0.00224733 -0.0141795 -0.0115141 0.00274613 
-0.0110098 -0.010466 0.00234242 -0.00847195 -0.0111356 0.00256552 -0.000550218 -0.0118819 0.00168432 
0.000699816 -0.0116029 0.0012445 0.00295698 -0.0114402 0.00235831 0.00446784 -0.0108384 0.00242109 
0.00621169 -0.0100308 0.0026846 0.00718212 -0.0104245 0.00316329 0.0109241 -0.0100339 0.00277832 
0.0120819 -0.0103363 0.00269618 0.013269 -0.0107981 0.00261144 0.0219678 -0.011445 0.00168388 
-0.025419 -0.00879154 0.0031597 -0.02106 -0.00912711 0.00240484 -0.0198556 -0.00981348 0.00324391 
-0.0183522 -0.00998896 0.00269767 -0.0172756 -0.0107341 0.00285901 -0.0121569 -0.0105426 0.00250663 
-0.00999291 -0.0108691 0.00227405 -0.00876019 -0.0100173 0.00225599 -0.00655687 -0.0117786 0.0024424 
0.00974622 -0.00992388 0.00302652 0.0119908 -0.00846622 0.00236786 0.0131237 -0.00863875 0.00242653 
0.0145087 -0.0083397 0.0017855 0.0165279 -0.00963293 0.0014988 0.0249666 -0.0101651 0.00148772 
0.0259447 -0.00942298 0.00136098 -0.0274643 -0.00849425 0.0027109 -0.0266376 -0.00834841 0.00356912 
-0.0237064 -0.00876794 0.00309962 -0.0218003 -0.0081115 0.00293744 -0.0192385 -0.00891727 0.00296873 
-0.0175989 -0.00923081 0.00334083 -0.0165704 -0.00989429 0.00357581 -0.015416 -0.00978672 0.00275102 
-0.0132304 -0.0101444 0.00268926 -0.0117474 -0.00976256 0.00327948 -0.00979467 -0.00940866 0.00248501 
-0.00112077 -0.0109234 0.0014993 0.000262921 -0.0105503 0.00181332 0.00280176 -0.00963025 0.0020621 
0.00393351 -0.00973159 0.00219666 0.00535862 -0.00943349 0.00204989 0.00753038 -0.00823006 0.001638 
0.0080452 -0.00919308 0.00271119 0.00947459 -0.00886654 0.00293972 0.0144255 -0.00702268 0.00167124 
0.0174661 -0.0084294 0.00128151 0.0243158 -0.00953331 0.000762133 -0.0267925 -0.00719558 0.00317496 
-0.0257838 -0.00759365 0.00308468 -0.0234536 -0.00734122 0.00202939 -0.0206363 -0.00788769 0.00273231 
-0.0162067 -0.00885807 0.00278706 -0.0150263 -0.00857691 0.00276005 -0.0132635 -0.00903052 0.00235342 
-0.00846188 -0.00907212 0.00278379 -0.00647584 -0.00965048 0.00237564 -0.00442557 -0.0100182 0.00162959 
0.00150029 -0.00890036 0.00223976 0.00315699 -0.00823567 0.00249405 0.00450042 -0.0087618 0.00206241 
0.0109651 -0.0079694 0.00224333 0.012725 -0.00755743 0.00222537 0.026893 -0.00848235 0.00137722 
-0.0278376 -0.00765161 0.00329388 -0.0252482 -0.0066075 0.00313173 -0.014038 -0.00811661 0.00256572 
-0.0108929 -0.00913008 0.00265316 -0.00897246 -0.00800182 0.00270844 -0.00691125 -0.00864305 0.00216298 
-0.000937879 -0.00857119 0.00194807 0.00167498 -0.00726114 0.00270545 0.002129 -0.00800737 0.0019728 
0.00905414 -0.00741516 0.002585 0.0252398 -0.00844956 0.00102924 -0.0288291 -0.00533647 0.00354433 
-0.0271245 -0.00554704 0.00295555 -0.0261041 -0.005888 0.00331436 -0.0243085 -0.00617141 0.00231813 
-0.0228171 -0.00670548 0.00285305 -0.0221783 -0.00726017 0.00208034 -0.0210809 -0.00658948 0.00220856 
-0.0191054 -0.00740554 0.00232579 -0.0163301 -0.00768722 0.00255021 -0.0149942 -0.00749489 0.00283349 
-0.0121731 -0.00690871 0.00268677 -0.0102392 -0.0078486 0.00246016 -0.0079421 -0.00699453 0.00237238 
-0.00656583 -0.00763495 0.00231164 -0.00566859 -0.0089655 0.00197235 -0.00209917 -0.00874852 0.00204561 
0.00376899 -0.00674231 0.00238461 0.00495113 -0.00678363 0.00237815 0.00611547 -0.00698047 0.00243542 
0.00914846 -0.00622318 0.00220153 0.0236383 -0.00693254 0.00177268 0.0253098 -0.00720495 0.00180932 
0.026539 -0.00689729 0.00157069 -0.0289297 -0.00414113 0.00321437 -0.0280748 -0.00493578 0.00275014 
-0.0249136 -0.00484475 0.00289352 -0.0229598 -0.00506747 0.00221492 -0.021935 -0.00538331 0.00203639 
-0.0170125 -0.00544479 0.00237963 -0.0142702 -0.00618705 0.00282159 -0.0131096 -0.00646775 0.00341057 
-0.0103628 -0.00625353 0.00275304 -0.00907592 -0.00646792 0.00273523 -0.00750454 -0.00572775 0.00219802 
-0.00400451 -0.00687637 0.00210209 -0.00236797 -0.0075851 0.00202422 -0.000322387 -0.00765842 0.00156571 
0.00068469 -0.0067918 0.00249805 0.00249687 -0.00619428 0.00227855 0.00372836 -0.00543201 0.00204467 
0.00583768 -0.0053389 0.00177139 0.00889423 -0.00489558 0.0025147 0.0100641 -0.00532846 0.00219114 
0.0215199 -0.00550143 0.00154559 0.0244833 -0.00627248 0.00169938 0.0273224 -0.00584272 0.00163252 
-0.0272225 -0.00408641 0.00276386 -0.0235901 -0.00430013 0.00263744 -0.0192108 -0.00539499 0.00283559 
-0.0180179 -0.00499502 0.00216812 -0.0155413 -0.00600338 0.00291519 -0.0142267 -0.00498898 0.00307259 
-0.00999864 -0.00503544 0.00274296 -0.00856882 -0.00506127 0.00241221 0.000433585 -0.00558914 0.00228346 
0.00155594 -0.00580653 0.00163782 0.00565793 -0.00397225 0.00195837 0.00768359 -0.00395084 0.00190289 
0.0263009 -0.00572397 0.00165965 0.0284783 -0.00618538 0.00190922 -0.0277961 -0.00297078 0.00342765 
-0.0240858 -0.00323841 0.0024207 -0.0163242 -0.00464718 0.00255751 -0.0119733 -0.00490839 0.00307784 
-0.00660669 -0.00466258 0.00258961 -0.0056729 -0.00598452 0.00233988 -0.00385052 -0.00495673 0.00269568 
-0.00267262 -0.00452834 0.00234419 -0.0015833 -0.00428194 0.00221353 -0.000281202 -0.00407771 0.0026421 
[...]
POINT_DATA 17850
FIELD FieldData 6
id 1 17850 int
4278 1721 2339 6724 69 4459 12727 5880 6364 
5756 4292 1833 1778 4683 243 5262 3399 1392 
4227 4283 2839 4474 1836 1272 4631 6101 1889 
3024 5758 1325 5580 10796 9032 7872 3609 3627 
4465 4667 5306 2509 3952 2912 1554 4004 3471 
3449 5100 625 5690 4381 4878 6160 1452 3657 
3931 126 2957 4523 10081 3144 1370 4397 1040 
7901 11319 4886 4588 552 4320 530 849 11362 
3008 53 10408 10056 5349 7958 4226 2575 1601 
974 8996 1218 2178 2528 3142 2105 2612 6326 
5218 4305 6508 10424 1826 8611 2948 5604 5379 
10860 5876 1074 11292 3085 10490 8935 8285 3743 
4165 4371 122 3662 4361 11374 6269 5377 3308 
5839 2098 12661 5193 5251 5203 4103 8245 4228 
3786 2861 4562 5127 4358 464 79 735 4748 
5370 6556 3592 1811 865 2019 758 2164 1367 
380 6565 9257 4715 5935 4323 3065 3955 5181 
5409 6366 3194 2650 5134 1197 5291 5853 3811 
1181 6812 4773 837 6706 9388 6014 533 6256 
5999 9762 1783 2802 5903 6672 2276 813 5266 
10597 1396 2302 5425 2637 42 5486 2459 3704 
6104 1810 11338 939 4781 6241 3646 3042 2881 
1002 907 4405 4745 3744 3573 30 990 1750 
621 3154 2987 6135 298 984 8688 9868 4282 
3622 3127 2679 2224 4198 3836 1708 4694 3637 
2657 2281 6707 3110 2961 8476 4712 3368 4053 
3050 9738 4233 462 2734 1731 933 3692 2364 
7533 2825 6817 10946 6882 901 1264 24 9786 
2078 10297 6560 4213 5691 6449 1118 1049 1203 
2918 4744 6266 2383 3423 1805 6399 161 5493 
5201 4232 968 3237 831 4787 839 3433 2910 
2707 1028 1943 2248 803 1956 6710 2808 451 
5483 6564 1048 5464 4770 59 4219 280 3940 
3033 2354 5352 190 4171 5514 659 6789 3922 
10232 4398 5752 8613 10824 11856 1728 2723 6540 
6559 1620 6197 6699 6879 3103 4792 3830 5308 
4115 3226 106 1393 4595 1887 3344 6866 176 
4199 938 1971 1280 673 522 1466 6008 5267 
3775 3796 2011 5219 6188 4716 6601 2899 133 
1122 1321 3560 488 4984 5279 3472 4462 4587 
6094 911 6531 712 4186 4079 5516 5343 3054 
4765 2926 5890 2738 328 3178 2292 6740 118 
260 5725 220 5040 6417 6473 2319 3863 3121 
1944 2805 2996 5949 4565 4493 3123 4572 5144 
1549 4917 4235 2394 4155 2828 6079 5689 2442 
4101 582 2501 6329 340 4460 2960 1455 833 
4277 2465 3354 6221 4061 948 3835 3655 1072 
1025 140 5940 475 11378 2425 5187 3762 6005 
2687 3927 331 6189 4238 435 2830 5303 5176 
5015 4800 5970 2218 5579 6576 1591 4594 194 
1912 575 6851 2574 1015 5132 4472 4141 3554 
5148 3313 1402 2344 4036 4970 4431 5879 2787 
6225 3043 4884 5618 6316 5391 5060 5793 29 
5259 4502 3253 5346 2266 707 4304 5081 6207 
2905 392 4225 6193 6725 2223 5435 6463 61 
10243 5326 4410 3918 3688 868 2299 1830 4912 
4239 7080 9554 1177 6274 1011 2464 2492 6605 
4010 4930 6113 4527 5107 6691 4888 1882 4500 
1901 3983 3282 4051 3965 2432 5431 6499 11865 
5137 1248 3823 3195 1519 3542 3760 11354 1743 
1102 4259 9111 393 5472 6151 5393 5693 2092 
1619 603 872 5261 5766 3068 2002 3961 748 
3698 2624 10259 4922 6350 564 6338 2548 2421 
6831 6340 747 1537 1347 3520 5191 9659 2662 
389 2919 115 2893 1793 4969 6862 6016 6405 
3377 6494 6721 3649 2758 9533 2986 6766 4290 
2032 2935 1013 12220 10240 644 8930 1681 1684 
3826 5848 2271 6461 2332 271 4466 5639 1857 
3681 4749 574 398 6570 35 2887 2066 4120 
6411 4803 6668 4334 1374 64 4217 3679 1 
4264 2390 6684 5123 5899 3625 6066 1422 4376 
4244 5694 1160 1745 5871 3954 5091 12350 6259 
6214 5156 5402 3044 1976 6254 1108 11941 2756 
2185 639 399 4662 1512 593 7339 9623 11547 
10182 5563 3117 1437 5616 3639 3165 3325 11399 
11931 1282 700 3481 6133 4058 4395 2587 689 
244 769 2585 6718 3427 326 6262 148 4719 
6327 1716 5155 1031 4326 4714 12135 4147 794 
5108 1312 4996 5488 936 4663 4191 4831 1100 
1121 5621 1963 7316 1202 8882 4336 5345 10891 
4075 6325 4484 5120 5490 2474 6592 11948 5434 
1454 5913 8924 2170 4798 3186 11751 6231 2699 
1222 6898 4788 11257 4458 6141 7665 1103 5419 
12424 7319 1995 6581 1819 3526 10941 4057 3777 
10581 5315 3029 99 12114 1657 5474 6250 6149 
3258 5210 2112 437 2489 3702 3394 2649 401 
6880 9093 10736 6931 3810 21 1354 2123 2630 
3248 5539 193 10540 4643 3401 5446 4591 2225 
1316 6361 1092 163 11238 5225 876 7284 9179 
7675 5568 10013 4273 5861 3590 2065 5741 8892 
5891 7079 8092 6146 3211 597 9897 11916 10599 
2063 6669 3396 3886 3288 5002 2397 5954 6255 
8689 4205 3812 2769 4700 2097 9930 666 3985 
5246 4068 3964 5487 11477 12315 5465 2316 5985 
5783 8610 9806 6453 2733 2362 9747 11462 6351 
2944 3097 3438 11677 1675 2884 691 5371 4576 
7037 2674 674 1776 1459 4288 127 8954 6810 
5697 8019 12752 8011 8197 3407 4560 375 3497 
438 6770 1540 3569 6479 10455 8616 3470 2951 
5562 2213 11879 6695 4429 2151 441 10927 11007 
10028 2925 4434 2670 229 2262 5522 6786 675 
5801 904 6056 11912 5157 1925 11396 1734 9197 
5859 388 6202 10637 501 1277 3002 3462 6585 
9142 2613 6213 2265 3487 6858 751 143 1763 
6772 8140 9651 1158 2846 5942 2493 1653 2358 
4726 5032 5418 6476 6645 3846 1510 6136 6460 
8363 2535 12566 3250 2775 5665 4417 2160 10429 
1450 5875 320 525 3636 5029 6840 1885 8880 
8453 9999 7846 10162 3705 5033 3781 5810 3106 
4161 695 4955 6664 4224 6119 609 9224 1391 
2811 7097 679 3500 351 6321 6700 1839 6401 
10387 1627 4148 197 6333 2458 980 6821 4885 
9407 5896 8624 5585 11278 8032 3392 7242 347 
1853 4372 2155 7747 979 1774 5915 8582 2273 
4577 1530 8073 7740 8542 9370 6158 2531 2026 
1418 6015 12104 1654 4189 3138 1789 8128 2279 
6779 6344 3900 4083 5770 6542 5830 3146 489 
4178 6378 6670 2979 6646 6179 6507 3984 1123 
2603 2000 1997 10345 245 5150 2220 6232 3353 
760 4266 3083 6062 1188 2906 1027 4056 4991 
2441 10723 3485 836 5574 3278 2791 3807 10036 
4461 1115 870 2484 11708 6523 3229 4379 3458 
3677 1472 432 6177 2177 5424 360 1960 1399 
1514 3894 6799 1977 11778 546 6285 3094 4201 
259 3873 6761 1685 2249 6469 3803 254 4453 
3486 569 5085 5167 3687 1953 2212 811 2784 
1204 1975 433 3262 4985 6865 2502 3205 4356 
4728 4641 2405 1130 6867 5612 3180 4279 3108 
339 2508 3188 3439 1226 3977 4639 12680 5350 
4085 1104 4098 739 5795 7590 10983 5760 73 
5991 6577 5800 884 4412 8290 1303 7579 2381 
646 4548 3125 684 1722 3361 3086 4532 2237 
3318 4543 1863 3316 9027 10004 755 1360 2923 
301 6240 6510 7196 6300 1383 5247 5170 9000 
6951 6072 3323 2208 5701 5893 6813 3564 2415 
2296 3640 6234 1423 4624 1059 1898 4684 4440 
1588 384 5559 6722 3170 952 5865 6661 5749 
5713 4339 1762 4706 2114 2843 3269 4254 3784 
12119 2922 1182 2911 4039 503 6086 2071 3319 
3266 1050 3871 6169 5277 1861 6007 1592 3663 
1967 6020 5655 6750 12451 3089 3220 2233 641 
6752 4619 5882 4343 6535 1709 3342 2211 6092 
6429 241 4007 4055 764 6527 6625 1931 2595 
7 5908 6864 6381 1911 709 2356 2387 2981 
5525 885 12608 7277 4118 3315 3539 4298 3247 
1576 2732 10029 2850 9599 5034 720 10738 67 
762 1966 3061 6067 348 619 658 985 4354 
989 4699 479 1914 5561 3839 2610 5388 2242 
3000 5217 3675 5577 4237 4416 1184 5348 4766 
6127 5344 9369 3095 6665 5763 6678 2604 138 
2725 9697 2589 269 3464 1865 5900 3638 3345 
4367 209 4418 6373 1148 4471 2586 5994 3979 
5637 3184 3864 1336 1827 3792 381 11787 6607 
2675 5554 1714 4177 8608 2932 3098 5742 5606 
318 12715 3582 12464 12372 5984 6276 6849 4248 
2814 10968 6426 1518 1245 3053 2041 7568 3660 
2658 4611 12465 2135 903 5287 5541 129 4245 
6892 5271 3701 12664 4286 1749 454 8590 3843 
1003 2842 1363 1193 3654 1961 5615 4255 1523 
6575 5631 1706 859 7808 4528 3181 2897 5728 
541 4774 1001 5735 4844 1983 7968 4902 4301 
5297 11980 4333 536 6622 1166 7006 1984 650 
39 5627 10494 4638 5745 3289 2588 1365 5905 
167 6596 1496 9053 1594 1729 6634 3199 5482 
3555 4898 4074 4373 2701 9670 532 5818 12288 
2372 4316 2228 6680 10382 1096 5762 5172 5496 
5389 7395 10881 5056 5956 4826 6422 2494 1618 
3532 7436 1569 3130 6404 2684 356 3533 3408 
4926 2557 12081 68 6394 3989 4289 6043 12675 
1295 3503 2345 542 6618 352 1114 4918 2582 
6900 4583 6097 4807 776 6357 6608 4485 97 
6060 10533 1923 6929 4982 2251 5023 5767 3732 
3914 2030 12445 2876 5327 8588 2028 9353 8484 
9328 10318 601 3510 3674 1317 3257 9941 11228 
1732 2537 5824 10861 6521 912 6391 573 403 
6195 5168 5623 12789 3746 9634 7791 11047 1173 
10715 668 12773 2042 3739 11711 4883 11968 9482 
10906 4489 1356 816 3748 11031 8267 6448 5265 
2942 10993 4833 2553 6397 12205 9795 12299 711 
3651 6839 10632 7054 7138 6028 1587 10914 12097 
8318 10610 2532 2118 6317 2883 5224 5500 9180 
5751 2124 4005 11118 1535 805 1636 10084 10338 
10559 11242 2760 11957 1494 4215 11250 11652 8292 
1676 9660 5581 1872 2691 6602 38 10365 9923 
2503 9931 955 11812 6599 7451 3428 3317 3160 
1075 2408 5855 7466 4102 12568 9073 5646 1870 
2259 6612 3959 6497 9954 1131 11662 3887 3919 
13895 14028 10823 3747 2810 6205 9872 12611 6437 
3215 1045 4557 5997 12384 10586 9198 5590 2709 
5269 7944 1361 1230 10153 14698 7236 6719 3813 
3686 2851 1726 9858 7271 9380 2700 2967 5703 
11454 5497 2728 1254 3336 965 580 6809 10619 
8362 8717 5816 6409 887 96 873 12588 6416 
1435 9104 10261 5589 1168 5551 6755 1755 2567 
5390 1351 9184 2269 2156 11273 7987 460 11572 
8828 5748 10813 1531 719 2634 2713 1691 10975 
2073 5468 3936 5366 170 6419 2943 2690 2950 
8664 4370 2648 5140 10279 10920 10493 5320 3780 
4601 6550 6252 3884 6517 8367 1398 11166 9182 
12519 4622 1376 8515 7625 2110 3049 6102 3198 
10969 195 2280 1733 4035 2882 5884 8138 10487 
8788 7583 2214 1000 2712 3305 4536 6367 2708 
2346 12420 11561 604 1547 3271 1371 8319 6044 
3411 6735 5057 9664 9467 5794 6641 5907 3527 
439 2543 309 426 3727 1803 10459 7394 2673 
3264 1099 3999 961 714 3235 1071 4724 1604 
10229 10546 9133 7668 3461 5429 2852 226 6630 
3476 7920 4332 886 3753 9730 4530 8524 6528 
4511 5375 7170 12665 2590 5883 5275 3221 2099 
2803 8450 12507 2955 11186 7804 6356 3972 3242 
607 5682 11923 2666 6811 877 1705 3617 11259 
3576 931 2731 5517 4653 2046 6737 2305 1340 
6035 3756 4599 10395 3548 1319 9168 3379 12006 
9153 4836 3717 2215 1617 842 11661 5987 6025 
6543 6271 9971 9543 6001 256 4337 2694 611 
2031 11105 1236 3082 7701 7422 5243 4937 6557 
6320 4835 834 11229 2395 11439 5337 5105 7615 
2190 3301 5296 8144 2143 5221 2444 1217 2475 
6183 3615 6711 1880 3072 6658 1097 6804 878 
3238 1557 667 3437 4365 379 3903 6471 8942 
2605 2594 4586 1482 7071 982 11432 12580 10652 
2460 4602 1773 3009 2619 5702 5933 3652 1061 
10075 2282 588 12169 169 4596 1143 357 932 
5414 5149 9781 6194 296 1936 3828 5610 1136 
1133 2668 3276 1847 6483 3578 1473 6708 717 
5058 3632 4346 467 1310 2600 12468 6277 12239 
5847 3021 1285 205 4157 3214 5955 1926 2476 
1929 3435 3400 6660 9809 2818 4953 4359 7448 
8818 75 820 5537 6220 185 2516 2868 1674 
2472 2486 1220 5436 5373 5290 2513 10250 9619 
6587 2541 6462 1786 4919 342 292 5888 2815 
7710 2103 8204 1201 3529 4195 12269 5018 2929 
11282 2392 2056 4783 1924 3261 5017 9289 5963 
3059 3594 3773 10844 3402 10228 6096 3531 987 
2426 1720 3028 1068 11430 8241 3667 198 7955 
6822 12546 3974 9254 6626 1403 4197 4933 9667 
12708 6243 2108 4759 1965 4698 11889 4573 4040 
135 1737 4644 308 5147 6753 12158 3447 314 
4525 6767 4575 3729 2530 5444 100 10127 4582 
2804 3682 4825 5049 3937 3200 2409 4717 1152 
12567 5336 10974 996 5102 10764 5030 3751 7290 
4872 945 9196 5003 9996 3078 5926 4866 44 
474 12700 9044 3963 3005 798 1372 9338 3372 
4015 5658 6055 1529 4436 6156 5299 3889 2601 
6395 9787 3418 5976 1979 4949 1432 6683 562 
998 6832 10709 7340 3383 132 136 3790 4099 
1548 6459 2546 4832 645 4580 2363 521 2765 
2371 3545 9635 5440 7414 5158 4947 4216 1260 
1052 1036 4131 368 4447 436 4200 3568 941 
9797 11216 2034 11726 2320 3853 4480 4114 632 
2865 5229 6439 1955 6200 4503 2972 5307 1375 
3534 1384 8565 2 740 1487 2845 5273 1802 
4598 71 855 3601 4454 1981 4929 6663 1972 
4002 827 2350 743 935 1668 781 3334 5289 
1257 154 6003 3804 2079 6260 11731 4031 3120 
4321 1314 3563 7575 4072 2369 2468 5025 5295 
4329 2840 1350 3380 16908 8274 1209 9175 3553 
682 2086 857 62 5624 1621 7372 6454 1221 
6175 1856 2719 3015 1046 692 2614 5311 5636 
523 3769 6520 1625 2193 2829 4578 3970 4762 
11659 8869 1382 629 5110 2375 981 2322 12442 
9298 1189 8499 6905 2913 10524 7820 5453 4794 
1516 4951 3877 1425 4946 7445 681 91 2895 
5381 8847 397 3443 12671 10090 1603 1712 7748 
7674 3981 2025 1039 6504 7113 12263 6632 2217 
6181 313 1626 7251 2812 9804 11598 8981 2479 
5088 5093 1156 1440 1421 3347 6132 10181 5035 
7509 4852 1894 3132 55 6029 17264 9192 9378 
7689 7335 2533 250 5666 4518 6759 5298 10892 
1585 6782 2525 4858 11098 5459 8702 10080 7731 
8132 4294 5325 4349 4920 3434 4818 6991 5815 
7053 6047 3538 6738 3252 4652 5095 8459 3275 
3454 88 2284 10704 7981 2992 5054 12459 3642 
3245 4647 6688 1385 6600 9629 1453 8815 4555 
2639 12024 5133 4081 4891 4905 11463 3613 2434 
3022 3605 4497 10328 6418 9678 1661 6290 1150 
5878 22 11961 11887 4158 1388 1624 12382 1781 
3848 4837 1812 8894 6302 6237 2916 6166 5264 
6493 1834 2196 1211 4834 5685 545 3445 3217 
3207 4808 233 2970 1255 3176 11441 507 2125 
6089 4425 1488 5781 6887 6491 5906 11866 3088 
1005 5711 6311 2710 6087 5022 2311 4401 6509 
3473 3063 578 5718 2352 1014 6687 3588 4520 
1076 4862 3052 524 1851 4893 3296 5232 2822 
2467 4604 4894 4839 4048 3967 146 6478 12758 
5374 2388 5332 3216 704 3222 1368 3857 12219 
1408 897 10665 2313 9773 8190 2654 1093 1908 
2545 785 6834 2900 11808 9151 8231 7348 5274 
2824 2783 6842 6885 1480 8157 3881 8370 8988 
6273 4828 1502 5011 2663 4823 3151 11527 9975 
10134 637 6566 8466 4220 631 6899 8136 8885 
11907 12286 11959 7485 418 473 12495 6270 5480 
2534 10069 1704 10377 8131 10950 8445 8404 5082 
175 3233 2659 4280 2234 3624 11141 10477 5039 
13629 9539 9835 8579 7153 3203 202 102 1227 
10933 8108 2050 10170 17240 10305 8797 4976 12739 
1041 1030 1147 7708 4659 7023 9811 8311 8420 
8559 11345 9258 13495 817 2351 5505 11029 9046 
8448 11848 8832 9489 12289 2669 1489 5975 7965 
12153 1344 8090 2384 12551 8051 9282 3628 2163 
11046 10936 124 2037 4915 6278 6 7442 13469 
10670 9391 11905 10257 2849 2809 86 1546 8301 
5051 2550 12670 11556 12716 9476 11055 5328 3719 
9964 8102 7679 11723 1877 2656 6907 12026 8518 
1680 9484 3270 10398 11421 10117 11045 4341 6219 
5385 2044 95 13718 12192 11065 11025 5992 416 
3149 1141 2455 3603 2289 6757 11085 13269 12365 
10800 48 863 13474 8670 16266 2680 6109 3467 
3859 10177 11064 8490 10271 10396 9341 10856 7903 
10213 6532 3032 759 6039 1151 3055 6818 656 
25 10101 2524 5479 1142 7235 9665 1127 45 
4816 6805 8000 11427 1895 8718 9616 7980 10087 
11647 6915 9017 8221 614 2274 5821 1683 5881 
1504 8799 9708 3559 7586 7880 8771 2703 1985 
5597 12070 10924 13020 11744 3279 5383 919 1989 
3795 1135 8110 3770 7453 4752 526 12563 8581 
9904 7403 10248 12168 7684 11207 9200 8595 10102 
8583 6065 10040 7361 4247 3820 7140 2377 5699 
5937 2461 7021 5118 9587 5441 16656 8320 10700 
9812 12001 12297 5695 9122 2189 5186 3842 3382 
4414 8657 8682 7849 8248 12756 6052 5714 4935 
5068 2790 2864 1829 2417 49 3175 9252 7000 
9006 11147 10690 6584 12638 9218 11574 2702 3285 
4362 3766 11593 6547 5598 1770 4490 12508 1700 
1800 4854 5372 12556 11853 8900 8982 8004 9401 
12371 2837 5363 7859 12573 1678 4302 9925 9346 
1650 1290 6002 9720 6682 10394 4522 5864 3025 
3327 2477 11703 12460 9867 1195 6330 630 3535 
4309 251 1801 8272 1042 7975 2750 1957 4296 
3508 4907 1593 2176 7861 8398 9933 7190 12482 
7377 316 1296 3492 2651 484 3623 5047 4448 
10277 6923 288 3018 11404 12138 11996 2013 11603 
11482 6450 9154 9483 8796 6704 1063 3783 2602 
1199 9009 9499 7716 8520 10837 8268 93 12387 
7016 12131 11061 6657 2692 5817 7776 10543 10399 
7491 3343 6563 6457 5650 6824 10883 7375 12648 
6888 1430 4024 11992 16751 1465 4554 6609 8849 
10625 8251 7157 10795 9945 725 5222 4504 207 
4607 11230 1527 11132 11920 10174 16229 2102 14095 
13689 6433 5506 11817 6844 7347 8709 4707 472 
2780 606 6639 4169 4779 8963 11445 3283 16036 
3362 6165 2715 4889 563 1873 9824 8030 9323 
4739 11418 2558 6549 4729 1644 4408 2776 12744 
12772 4013 11106 1791 5319 12303 6780 1337 7260 
2382 11984 12136 6238 5227 8829 1719 1986 3255 
3933 2664 3683 4139 2527 28 3193 2290 5835 
2561 6375 1111 4482 4034 6492 1687 12017 8023 
6153 3917 1055 1879 1506 2642 3817 7761 2230 
2721 1196 6208 3987 10519 5527 9350 7837 2686 
12642 5268 3925 11554 3284 2568 2347 3179 2329 
11600 11975 10289 7232 5754 10674 4519 8043 6390 
1814 5489 3328 2254 5932 200 765 1162 6384 
1106 8554 3381 6976 3147 11859 2227 6054 2540 
11695 4348 11597 2754 4133 5840 394 669 5071 
12390 8557 4257 14979 5317 11858 390 4206 156 
1229 1238 3619 5573 6006 6013 4859 1311 5798 
2435 2275 11725 9418 11246 12721 3966 4621 767 
4087 11985 12634 1602 6371 2885 3384 3134 2806 
1235 3355 3558 11910 7894 11254 1169 2844 6754 
4435 4071 3793 1862 3277 11615 9437 11578 3389 
12106 11621 928 5673 708 10890 5026 12477 8303 
10751 7396 3537 5195 3490 286 5716 12414 12308 
1888 2293 7302 11972 6230 815 3586 72 2306 
150 5073 11845 11739 6826 3518 5113 5013 3805 
983 10209 10550 7106 12677 10311 2820 6472 3595 
4939 1525 602 346 12617 3556 5807 5778 14 
10114 8740 8525 1662 685 6360 2847 2179 5652 
4990 1208 12415 3100 4145 1874 2003 7409 1612 
5867 10066 12723 6501 2813 5700 11495 8170 5254 
12470 5285 8429 2141 2761 3062 16 4475 5827 
10654 12140 9565 654 3604 3742 6447 570 2538 
1134 12554 5421 10329 6078 11227 5304 3509 2507 
343 6427 6122 6335 5873 5432 4467 4822 1850 
9357 9940 5724 3707 1730 10144 10510 427 3856 
1476 703 1837 1794 2272 5901 3128 2288 2399 
3417 5294 12643 9471 4656 2977 3218 3426 4890 
4761 113 1124 3307 1652 4324 1239 1019 4317 
1735 3516 4091 10792 2429 9013 10263 3164 1032 
6562 11203 1183 1126 5510 3709 2236 750 4375 
3650 3504 882 4067 8031 9541 11596 3431 4112 
4791 9562 844 4855 1698 3618 9521 2146 4439 
6049 2706 3521 4757 1658 6383 1564 5678 1349 
5620 3376 1930 2080 3230 3626 7567 11090 11573 
17319 2997 6088 6841 5802 10852 6063 6776 2126 
9596 10384 239 3685 4771 6216 10496 7133 12705 
7334 3474 854 3212 141 11781 9150 4830 5121 
1170 6413 3953 3303 6744 5812 1210 11112 10048 
9143 9112 12535 11023 5635 5601 12639 6099 10607 
6282 4975 3506 212 4315 2832 5779 5009 6654 
1632 9445 1522 4924 3549 6370 7844 10391 9095 
12223 5719 5571 1904 8991 8545 7356 4746 4743 
2342 12229 2337 4678 3171 12769 8111 6946 7278 
4105 3390 17 5653 7526 9010 8312 11209 1266 
11323 3136 7673 1900 3723 8308 485 10989 8163 
9086 5613 5654 4156 4009 6115 7329 8522 9362 
2995 11983 5951 4016 10284 11843 10397 8041 10201 
5244 3004 1996 6974 3185 2219 2755 3263 7275 
2357 8823 4389 7769 8812 7521 9792 1954 6009 
4450 4314 5790 10312 10615 7207 8531 9373 5547 
6679 1186 11998 2491 9387 3575 2816 1464 12782 
13173 8242 8985 12745 11352 11788 7237 12265 8946 
9823 5722 6182 5591 3496 9862 3090 9833 10565 
7972 4703 701 5502 159 3197 7308 7941 12513 
9345 6613 802 6294 3879 7687 8467 9299 8464 
6349 6537 7024 12448 5916 11682 9932 1656 4658 
7249 8552 8618 4952 5596 137 11206 2980 257 
1613 10743 8896 4865 9991 206 10372 9622 4740 
4019 5112 729 2592 2722 2129 10928 5411 543 
10278 1084 10854 8165 2072 5780 4722 655 214 
6611 10851 4733 5228 5198 2655 1153 2823 1442 
2768 2239 5982 5458 2990 6474 6157 76 1958 
10321 4243 3351 572 4669 3912 2304 1139 12469 
11785 6034 1033 9903 3031 1243 2081 3116 6134 
2559 2866 3740 6090 283 5260 3579 1079 810 
3761 78 733 4552 5892 1935 386 3224 3837 
1663 3915 5192 1094 2511 3711 4192 4037 2027 
9432 5924 12252 15 3058 9763 1639 4470 2323 
7004 8178 4564 1462 4793 3314 4028 3265 3326 
927 4635 5784 2795 1543 2782 5842 11484 10649 
5944 5079 4758 5395 4993 6313 4697 6518 1345 
5364 2835 7257 2023 1307 2018 5078 5394 9677 
11736 9239 8750 10151 1441 4121 6083 1695 5832 
9721 9901 7843 7646 7389 6084 1447 5314 2300 
2615 6762 2431 2017 8172 2739 297 10442 11831 
10194 9922 8969 10479 9120 10815 6324 5675 1999 
11480 7095 9921 10354 11588 5712 2505 2867 287 
8371 10898 2403 10677 9340 11144 12505 483 8364 
3494 3069 10766 8932 1742 1140 1922 10549 5070 
6011 8046 9912 8372 5237 9775 6438 11684 7717 
11949 7189 7858 4661 4873 4695 10154 4000 7619 
9100 2010 1697 4916 8258 11231 10638 10443 9420 
11904 11208 11502 5708 5151 4806 2058 3311 8463 