# vtk DataFile Version 5.1
Generated by LIGGGHTS
ASCII
DATASET POLYDATA
POINTS 17850 float
-0.00663786 -0.028558 0.00250632 -0.00402767 -0.0289456 0.00294993 -0.00291783 -0.0292264 0.00210073 
-0.00150285 -0.029299 0.00211052 -8.80017e-05 -0.0290417 0.00306477 0.00127925 -0.0293238 0.00244045 
-0.00982282 -0.0276838 0.00162889 -0.00861545 -0.0280209 0.00223626 -0.00766907 -0.0283158 0.00307022 
-0.00515077 -0.0281164 0.00308993 -0.00368337 -0.027705 0.00242195 -0.00276185 -0.0283325 0.00272406 
0.000519303 -0.0285416 0.00206798 0.0021571 -0.028192 0.00169704 -0.00774883 -0.0273331 0.00236899 
-0.000395094 -0.0277198 0.00234516 0.0010921 -0.0274582 0.00180965 0.0105122 -0.0273901 0.00111545 
-0.0103392 -0.026613 0.00153421 -0.00843599 -0.0256894 0.00225199 -0.0075353 -0.0263223 0.00214237 
-0.00562888 -0.0272814 0.00246916 -0.00467136 -0.0270453 0.00295432 -0.00338676 -0.0265966 0.002444 
-0.00214642 -0.0274108 0.00234838 0.0019162 -0.0264621 0.00221013 0.00910758 -0.0269308 0.00130426 
-0.00618889 -0.0262429 0.00244738 -0.00336893 -0.025718 0.00326684 -0.00229141 -0.0255212 0.00248242 
-0.00103427 -0.0264761 0.00250367 0.000802767 -0.0253732 0.00234951 0.0124327 -0.0265531 0.00125943 
-0.0100876 -0.0252968 0.00123547 -0.0087965 -0.0247118 0.0018292 -0.00703002 -0.0253684 0.00205274 
-0.00496423 -0.0259329 0.00253278 -0.00418742 -0.0250511 0.00266896 -0.00111539 -0.0251401 0.00226621 
0.00329887 -0.0248028 0.00196317 0.0092507 -0.025862 0.0014907 0.0111195 -0.025896 0.00128159 
0.014869 -0.0254 0.00148361 -0.00987017 -0.024211 0.00152271 -0.00743342 -0.0244612 0.00254984 
-0.00639849 -0.0241893 0.00210346 -0.0028213 -0.0244846 0.00273337 -0.00168636 -0.0240488 0.00299304 
-0.000464703 -0.0235406 0.00290173 0.000101439 -0.0245126 0.00263396 0.00216882 -0.0241221 0.00216963 
0.00662491 -0.0253636 0.00140794 0.00805299 -0.0249964 0.00163458 0.00989801 -0.0249219 0.00163781 
0.0179732 -0.0233027 0.0017734 -0.00866978 -0.022972 0.00182854 -0.00496736 -0.0240782 0.00225166 
0.000605154 -0.0230259 0.00273888 0.00188941 -0.0231645 0.00267603 0.00541734 -0.0243991 0.00167033 
0.00716754 -0.0244462 0.00197765 0.0114094 -0.0242231 0.00136151 0.0127797 -0.0237294 0.00173963 
0.0137834 -0.0238029 0.00134425 0.0151073 -0.0239937 0.00207288 0.0178979 -0.0220636 0.00189055 
-0.0075429 -0.0230806 0.00232531 -0.00256377 -0.0232649 0.00279475 -0.000915923 -0.0222603 0.00282567 
0.00306679 -0.022841 0.00243238 0.00630425 -0.0237213 0.00220917 0.00869323 -0.0240227 0.00160973 
0.0146981 -0.0229823 0.00231836 0.0158799 -0.0225378 0.00187313 0.0195786 -0.0217999 0.00219449 
-0.00900242 -0.0218572 0.00154517 -0.00617632 -0.0231158 0.00191774 -0.00418165 -0.023016 0.00244277 
-0.00240208 -0.0215122 0.00249146 0.000706976 -0.0219087 0.00242842 0.00417574 -0.0224548 0.00268931 
0.00512086 -0.0232027 0.00199161 0.00754259 -0.0232511 0.00205388 0.00846559 -0.022571 0.00206412 
0.00993755 -0.0231416 0.00215118 0.0109462 -0.0229273 0.00277613 0.0129619 -0.0221301 0.00266006 
0.013791 -0.0226343 0.00172607 -0.00695515 -0.0215106 0.0015628 -0.00390399 -0.021926 0.00232637 
-0.00120273 -0.0210606 0.00289367 0.00199788 -0.0213292 0.00243098 0.00301957 -0.0216427 0.00264225 
0.00505745 -0.0219468 0.00186823 0.00696936 -0.0223744 0.0029801 0.0118456 -0.0223816 0.00133631 
0.0155783 -0.0199593 0.00134021 0.0174268 -0.0209995 0.00182097 0.0186351 -0.021138 0.00202321 
0.0202823 -0.0210508 0.00268474 -0.019496 -0.0218386 0.00153801 -0.00662712 -0.0203645 0.00125708 
-0.00570249 -0.0206546 0.00228895 -0.00461358 -0.0202894 0.00227972 -0.00333622 -0.0206349 0.00252296 
-0.00220196 -0.0203945 0.00249223 -0.000607551 -0.0201964 0.00262795 0.000483326 -0.0206487 0.00259899 
0.00314525 -0.0204942 0.00282366 0.00404614 -0.0213207 0.00292298 0.00636404 -0.0223181 0.00208328 
0.00797866 -0.021573 0.00243115 0.0100206 -0.0213351 0.00201851 0.0107744 -0.0222107 0.00191525 
0.0127381 -0.0205459 0.00282194 0.0128376 -0.0203024 0.00137281 0.0167241 -0.019892 0.00210354 
-0.0181263 -0.0220391 0.00176049 -0.00782562 -0.0197751 0.000960288 -0.00287731 -0.0192813 0.00284012 
-0.00139468 -0.0192719 0.00269011 0.000289765 -0.0194308 0.0026117 0.00159515 -0.0204028 0.00277783 
0.00279646 -0.0194135 0.00296284 0.00499452 -0.0208863 0.00246063 0.00642619 -0.0205468 0.00242318 
0.00795853 -0.0201118 0.00206321 0.010878 -0.020129 0.00208281 0.0142664 -0.0199765 0.001683 
-0.0204567 -0.0201142 0.00181721 -0.0192598 -0.0207855 0.00176091 -0.0176125 -0.0207649 0.0018813 
-0.000407007 -0.0189621 0.00345293 0.00702867 -0.0197185 0.00304841 0.00837764 -0.0191926 0.00300634 
0.0107193 -0.0190795 0.0022216 0.0119563 -0.0199048 0.00215815 0.0136148 -0.0189565 0.00212599 
-0.0193733 -0.019647 0.00180723 -0.00694884 -0.0187139 0.00120732 -0.00442521 -0.0191287 0.00192751 
-0.00260601 -0.0177991 0.00217514 -0.00161491 -0.0181633 0.00252143 -0.000209463 -0.0181306 0.00241145 
0.00124805 -0.0188693 0.00234489 0.00138252 -0.0181115 0.00100696 0.00432405 -0.019937 0.00256774 
0.0060511 -0.0195536 0.00258051 0.00692102 -0.0185059 0.00275704 0.00858389 -0.0181999 0.00244455 
0.00931318 -0.0190187 0.00225783 0.011511 -0.0180782 0.00178856 0.0125686 -0.0185335 0.00205042 
0.0149478 -0.0171182 0.00149514 0.0213318 -0.0202176 0.00204515 -0.0225677 -0.0184395 0.00257796 
-0.0200873 -0.0188094 0.00228152 -0.0174086 -0.0184793 0.00196139 -0.00466447 -0.0180137 0.00191135 
-0.00315921 -0.0170696 0.0032024 -0.00122474 -0.0170513 0.00226982 -9.21514e-05 -0.0166513 0.00247965 
0.00583858 -0.0186208 0.00307191 0.00962928 -0.0179831 0.0023378 0.010706 -0.0178241 0.00260735 
0.012511 -0.0173723 0.00228591 -0.0234126 -0.0177668 0.00196896 -0.0214663 -0.0174761 0.00257692 
-0.0191491 -0.0178261 0.00231587 -0.014799 -0.0182731 0.00167213 -0.00397042 -0.0168395 0.00157835 
-0.00240166 -0.016706 0.00226126 0.00454391 -0.0179106 0.00240429 0.00763458 -0.017775 0.00296244 
-0.0239417 -0.0168993 0.00250315 -0.0225251 -0.0169983 0.00189357 -0.0210172 -0.0164814 0.00222459 
-0.0198698 -0.016688 0.00260298 -0.0177721 -0.0172383 0.00233553 -0.0167599 -0.0166442 0.00238738 
-0.0155696 -0.0169422 0.00205374 -0.0139662 -0.0176262 0.00150084 -0.00716766 -0.0161572 0.00146347 
-0.00449994 -0.0163193 0.00243614 -0.00343486 -0.0159503 0.00230841 -0.000983829 -0.0161321 0.00287729 
0.000925696 -0.0159855 0.00297107 0.00310139 -0.0165668 0.00268638 0.00656208 -0.0173482 0.00295282 
0.0103075 -0.0152455 0.00174052 0.0110091 -0.016705 0.00222635 0.0217294 -0.0171337 0.00196509 
-0.0221372 -0.0152609 0.00225738 -0.0185832 -0.0161001 0.00260986 -0.0174364 -0.0159395 0.00285559 
-0.0158847 -0.0160266 0.00263616 -0.0146209 -0.0166415 0.00249855 -0.00503719 -0.0153004 0.00120854 
-0.00245803 -0.0157613 0.00171715 -0.00043397 -0.015628 0.002011 0.0022561 -0.0158469 0.00224289 
0.00846507 -0.0160096 0.00232388 0.0162692 -0.0155898 0.00227952 -0.0240063 -0.0156094 0.00203186 
-0.0167968 -0.0151841 0.00236514 -0.0149176 -0.0155202 0.00281236 -0.0129418 -0.0162102 0.00172245 
-0.0118706 -0.015485 0.00195154 -0.00535057 -0.0143279 0.00157423 -0.00179807 -0.0140219 0.00200005 
0.00204416 -0.01374 0.00282552 0.00406415 -0.0157674 0.00280485 0.0058254 -0.0167269 0.00214841 
0.00806816 -0.0149043 0.00244763 0.00969577 -0.0149062 0.00263349 0.0118817 -0.0154927 0.00189122 
0.0137301 -0.0143321 0.00093157 -0.0247411 -0.0142801 0.00283539 -0.0230263 -0.0146474 0.00231216 
-0.0210366 -0.0143336 0.00263227 -0.019132 -0.0147991 0.00252755 -0.0179793 -0.015034 0.00237874 
-0.0157919 -0.0146973 0.00182829 -0.0143214 -0.0151379 0.00187549 -0.0133027 -0.0146221 0.00219408 
-0.0123347 -0.014298 0.00149621 -0.0105629 -0.013836 0.00140483 -0.00843659 -0.0140463 0.00129287 
-0.00279354 -0.0129325 0.00104358 0.00437986 -0.0141979 0.0026441 0.00625511 -0.0151697 0.00255949 
0.00817054 -0.0138582 0.00299017 0.0108089 -0.0143408 0.00213174 -0.0263122 -0.0129121 0.00237368 
-0.0232213 -0.0131525 0.00213339 -0.0223229 -0.0139147 0.00187675 -0.0204553 -0.0130981 0.0026798 
-0.0190669 -0.013176 0.00273188 -0.0176423 -0.013369 0.00290645 -0.0165353 -0.0141315 0.00276797 
-0.0158811 -0.0131749 0.00197777 -0.0142136 -0.0136626 0.00241615 -0.0128687 -0.0130822 0.00251321 
-0.00637183 -0.0131973 0.00135361 -0.000449125 -0.013385 0.00174673 0.00182369 -0.013512 0.00163661 
0.00210184 -0.0126307 0.00275204 0.00293754 -0.0124702 0.001756 0.00611452 -0.0139274 0.0024446 
0.00913097 -0.0137978 0.00233732 0.0117244 -0.0132465 0.00183589 -0.0250834 -0.0131012 0.00231734 
-0.0222986 -0.0124844 0.00265806 -0.0212293 -0.0123899 0.00229912 -0.0168743 -0.0124322 0.00256036 
-0.0156242 -0.0120947 0.00268157 -0.0146154 -0.0116673 0.00225593 -0.0135194 -0.0117338 0.00245594 
-0.01178 -0.012061 0.00221152 -0.0107071 -0.0125285 0.00204684 -0.00962895 -0.0120408 0.00226945 
-0.00868498 -0.0128188 0.00183421 -0.00759727 -0.0131282 0.00140524 -0.00402363 -0.0126114 0.00149231 
0.00382613 -0.012209 0.00303436 0.0050342 -0.0131563 0.00250273 0.0079783 -0.0128712 0.00208488 
0.0102526 -0.0132013 0.00252094 0.024993 -0.0132309 0.00223974 -0.0268738 -0.0118897 0.00233356 
-0.0256276 -0.0117758 0.00284219 -0.0249141 -0.0109908 0.00240639 -0.0229215 -0.0114879 0.0030085 
-0.0211859 -0.0109261 0.00246168 -0.0197391 -0.0120807 0.00252404 -0.0125599 -0.0110574 0.00256729 
-0.0114903 -0.0102148 0.00197321 -0.0100967 -0.0110084 0.0018683 -0.00844599 -0.0104181 0.00105225 
-0.00558905 -0.0106369 0.00184562 -0.00354369 -0.0114317 0.000605025 0.000568027 -0.0117489 0.00147131 
0.00336361 -0.0112392 0.00236361 0.00635252 -0.0128702 0.0024051 0.0089072 -0.0123115 0.00146397 
-0.0260125 -0.0106209 0.00262709 -0.0222702 -0.0105041 0.00211107 -0.0198489 -0.0109315 0.00248644 
-0.0174543 -0.0112992 0.0029652 -0.0167514 -0.0105808 0.00189731 -0.0153333 -0.0109323 0.001918 
-0.0135992 -0.0104636 0.0021725 -0.0124076 -0.00971792 0.00132883 -0.00950175 -0.0101663 0.00135036 
-0.00746508 -0.00986106 0.0011129 0.00482774 -0.0119967 0.00220532 0.00580046 -0.0116482 0.00181387 
[...]
POINT_DATA 17850
FIELD FieldData 6
id 1 17850 int
3672 2517 17402 15077 6399 3008 11806 8224 11559 
8664 6137 3270 4429 3543 12315 15944 2966 6981 
10564 12397 15737 16214 3541 404 14667 12310 14595 
10660 12663 11953 8398 1473 775 12012 2948 16192 
10010 17654 4494 7496 11099 5539 5078 17367 3417 
10858 2499 1082 9341 11864 17138 10355 10834 8133 
16665 4708 16761 2047 13667 13174 15500 217 11043 
5794 10658 16798 2822 8725 14755 10418 2351 8052 
14863 14743 15563 224 5260 15786 11955 14642 7338 
12716 1756 3674 13030 2900 7932 4206 2430 12137 
17255 5443 5453 2789 11917 13210 14501 1258 10064 
9070 508 6465 11031 9100 1441 16968 4361 14715 
13652 15293 5712 9340 13366 16434 14798 17614 14406 
4165 3943 6478 1685 9887 11724 16395 12005 9361 
10308 12736 16457 4285 15107 5838 12425 8373 6475 
8844 13887 13188 2267 6836 6206 16159 4666 7451 
12355 5230 1739 12495 17422 4693 11503 6847 16956 
10513 17144 9221 9889 10225 550 17412 11694 6804 
4178 16606 9273 8814 6702 15990 9247 12759 17142 
9832 7363 17218 2704 16973 8057 453 1049 8808 
10665 11571 17433 11988 7437 7481 2699 1836 10837 
6266 12984 10584 6789 7220 6080 5574 16436 12001 
6850 5919 4867 4671 8020 6014 3105 2462 13589 
7670 5397 3109 13599 14704 17094 15243 1026 74 
8423 4732 10981 13071 194 7253 11508 666 1751 
10697 141 1083 5750 14772 1647 968 2198 1071 
1036 6277 2522 15115 4917 3748 8487 16230 7058 
16079 17411 16925 6807 13426 3601 7428 16583 15704 
1651 17640 146 1691 861 9482 9182 1204 2532 
7121 16474 11676 10681 9324 317 1813 5703 704 
14193 17334 5280 1317 14476 1860 14828 11645 11890 
12212 5085 10721 3756 12130 15095 3046 1797 10621 
14275 16114 17723 7599 15961 10583 9432 11106 11452 
1804 16700 4939 15833 14106 17013 7016 6976 12547 
11558 17049 11304 10670 9037 17264 11283 12277 9041 
10245 3281 7629 12787 17206 7462 10414 2594 12872 
15388 16585 7082 13020 13806 2428 11396 4674 9021 
2265 883 4860 8591 11958 15715 3691 5645 15998 
7598 16963 16374 10450 17074 7169 14759 15674 6172 
9529 12842 1960 4798 3175 13961 713 3767 13881 
4365 8261 2363 16245 8824 413 13661 11299 12926 
423 5795 6350 1761 1298 3273 6541 11888 6320 
11738 7790 3833 6977 1572 12784 14283 2215 1867 
12285 8625 2413 6866 13388 15171 17770 11430 16327 
17767 6712 6625 11795 15701 5724 5760 7419 8463 
6934 7883 3540 6678 10384 2333 5520 1798 16850 
7133 6548 9778 7544 15991 16286 17816 12143 7340 
191 9925 3834 1281 5511 16369 5992 3895 5837 
15820 732 7767 14735 14380 655 158 11779 5540 
13687 939 6390 5573 100 3542 14963 7918 10597 
7168 7927 7233 11285 529 13773 7761 15842 6059 
7972 9958 1223 6299 12626 14455 7170 362 12957 
16419 4947 13947 10127 9305 7849 273 4114 12718 
3129 2037 14024 6543 10159 17153 11326 17225 13738 
4108 9267 1924 16857 11991 15572 17826 8525 11179 
1019 15680 12516 1226 16119 9394 2548 12372 15263 
3603 15113 4379 2953 6840 13523 14115 16408 11689 
17361 5932 10897 10577 5821 13607 325 1961 13314 
16460 5285 16993 255 4800 7718 13184 12253 6496 
2858 4655 9083 3076 1347 2326 11003 6615 11550 
2921 674 4519 11103 6953 7905 10427 6017 9183 
8661 17089 7763 12522 12449 12145 7361 16519 4164 
7234 17061 16948 13799 9849 7172 8180 7943 14246 
2583 6874 13957 8918 16922 16858 12171 14491 10776 
11318 13689 1686 12529 5245 11247 159 6932 10639 
10960 17191 6077 5216 3912 3490 16002 11920 8471 
13309 13809 11412 1284 13325 532 6739 8722 9474 
17609 8577 12691 16853 17018 6596 9825 9355 1576 
7773 2435 17187 3792 8991 13198 1679 7337 11530 
12251 13044 7130 15934 4554 6327 14067 12678 11441 
1121 15103 5567 1910 9164 8697 2401 9317 4478 
231 2393 1954 9995 15535 140 9828 5990 3937 
10516 3135 10599 4423 3134 7643 4882 16939 14880 
8258 9512 17488 7237 8620 3119 4324 10148 93 
2606 6203 7514 17592 16684 16337 12067 17442 1859 
5345 2692 10770 13518 3681 1754 15562 9566 15069 
8693 17070 17625 3846 15947 11212 10605 13920 13894 
3096 6532 3860 3604 7502 3269 6221 11817 9423 
14371 14904 7390 7672 13696 15889 8519 15830 14144 
15567 5040 12111 13289 10199 6468 14443 4755 12944 
9946 10219 1280 5218 451 6502 6653 15518 15803 
15931 12707 9367 15385 10824 3403 9436 15606 94 
2661 11659 2247 9278 14052 3120 11528 310 331 
5921 17631 1465 5028 14161 9465 4842 4987 15119 
14840 9252 2619 636 6239 7746 6354 2512 13008 
10055 17836 958 6985 13885 2599 5547 11614 5906 
5849 16985 7567 787 6791 543 13370 17109 11697 
3044 4260 16167 2701 7166 2244 5846 689 13424 
8744 9289 3373 9360 17753 7325 14947 3848 11119 
896 4251 17093 11082 12914 5130 8357 12677 17273 
15631 4710 16152 6211 11627 2372 6173 12247 4778 
14995 12100 688 2480 1610 17393 801 701 3934 
10107 946 1568 17517 13016 5687 10309 4570 16284 
16197 4400 139 4928 11759 2816 17199 4473 17284 
10147 12324 13086 11407 6140 15338 5241 15623 3489 
10128 7331 3454 5228 15608 11938 1573 8 16652 
11575 5456 5258 3515 4573 2863 17579 14117 10100 
8302 9952 17379 5527 3414 9681 17129 8141 10216 
10168 12676 16562 15160 15114 6817 2518 14118 14915 
697 16413 16647 6751 7112 13225 3143 7715 8904 
14368 2446 6416 5212 12153 6494 15676 852 17641 
4340 586 3651 249 13723 17130 11984 5725 13539 
17636 14267 11677 17125 10131 2192 14738 15502 12554 
6472 5824 14107 2702 10122 724 10442 10997 11576 
9720 7949 15177 10102 4461 1205 2216 1950 9330 
11628 13383 3677 13010 10081 3671 3144 5833 2992 
9788 12521 11851 10498 15052 11746 14321 7063 8600 
16156 15447 5243 12025 10385 11062 5949 1285 13721 
4704 16370 7301 3147 12520 11371 6072 13898 4273 
8388 14184 7427 6231 1819 13821 594 6908 3880 
16734 2447 16509 9092 5955 14883 16139 2562 4847 
12097 8781 72 6503 4950 9809 16382 6234 4441 
16754 7991 11564 11995 1546 13900 17464 6406 2762 
2402 8917 13205 3637 5747 13817 5891 10365 4427 
13335 2759 7705 6323 322 9467 12340 12688 1238 
1327 9923 4744 15996 13334 12483 7945 5275 6457 
17739 14757 15732 6533 2045 14764 9744 7912 15853 
16043 9429 17016 14202 3933 4503 15474 3239 5221 
7789 16969 14725 9625 3517 4180 15815 11276 6435 
3599 8761 1520 1127 4550 7046 12698 1018 8797 
11364 6704 9456 16881 13419 13543 1344 11028 3911 
2109 9524 2902 8250 11014 9229 12376 14049 4465 
3379 15056 6936 15267 4006 16188 17370 14143 11262 
8461 1635 8663 17565 7511 5412 17683 12574 8715 
4971 12139 630 14471 15583 2417 8861 3640 839 
16202 10483 13036 4079 7622 14834 16354 6810 652 
16259 10975 359 8437 5103 5559 1076 14093 10346 
9654 10555 15009 1783 12942 5267 13692 8138 5569 
4391 12697 17380 8783 8777 3768 10467 2234 9807 
14211 10435 16591 16289 15838 10209 1138 12320 17462 
315 12008 7048 435 7403 3526 14843 7913 7444 
3990 7179 17192 11434 1534 15399 3290 5638 10351 
8428 6202 17066 9607 11339 11466 6052 12885 2844 
13820 16371 12056 1524 10539 2806 2287 8714 3505 
14453 12109 1062 11539 5358 549 14658 17573 8729 
4629 11481 15987 5626 13695 3784 5403 11780 14806 
797 4656 13917 8807 6683 8498 7860 6616 11101 
11853 8982 275 15409 11172 1315 14580 5327 17532 
5111 2439 9968 4126 104 17302 9920 16196 2099 
6122 11237 2451 7270 16249 13448 12764 16570 2664 
4274 5495 12308 15187 1249 8415 8473 1235 8553 
6154 12316 11581 8500 9731 5225 1340 17087 13096 
7888 1740 5831 17223 6685 7137 10707 3985 14129 
10852 6521 17788 11618 1084 16375 7621 3299 17530 
7744 6127 8573 11323 9970 15982 7242 16750 479 
13 10341 9016 17456 12840 8657 3325 12261 6582 
13764 7478 12047 3805 144 5920 9980 1773 15228 
5859 6919 874 12906 657 14272 16073 6773 4459 
15755 1871 12804 633 12899 7907 7657 17276 7008 
8148 3751 2870 16488 8401 8785 2908 3563 14078 
5791 5988 11883 15503 2255 675 9246 13358 1331 
8956 14548 7105 6790 11108 15375 13158 14978 11916 
1314 13546 16441 16747 15759 5557 14981 8016 17731 
15812 80 1267 6110 12995 13932 6711 10503 11009 
17645 12469 1337 16333 8195 15861 13561 8685 7324 
6666 2146 6578 16483 17477 6786 13456 13004 11331 
13877 89 7209 1618 7652 8031 17651 4129 15029 
17235 2708 9417 5854 6089 3328 17073 4056 16031 
16688 4596 4447 17231 15278 3580 8338 1956 11292 
16291 16036 8458 6883 13602 5811 15522 33 15685 
12651 7276 13255 3948 330 10136 17178 8002 4367 
2102 7374 9134 7500 7294 4065 11875 16138 10008 
4426 8884 201 15926 15590 4433 2242 5524 16351 
9602 364 5785 8580 7587 2347 16827 16440 12811 
12797 11491 2220 2802 17777 16443 5770 8345 11763 
7420 9673 15585 355 15313 12798 13217 11463 2442 
10015 8849 9527 1139 8505 17672 5766 729 9590 
9636 7413 7664 17567 16009 16040 4418 5342 11729 
16171 16743 17179 1657 10612 14214 531 12647 17713 
5393 9351 14901 5339 15988 12176 16141 2482 6681 
12464 7384 2436 9287 6311 9107 2353 10420 836 
6449 2100 16538 16500 1582 3088 7285 766 15662 
12209 13153 2801 13373 2258 5027 4518 10438 885 
17294 17785 11739 13551 5966 17596 5611 12620 9670 
2843 17101 1916 5870 15217 4200 14428 5198 17676 
8307 7522 13969 15564 2365 9666 851 10031 13239 
13979 12943 17241 8376 9639 14858 13714 6375 4373 
12684 8590 7160 2588 5512 12088 13841 6691 8675 
10543 8890 4803 16335 13937 12948 2400 11733 13167 
1515 8156 1570 9780 4354 16864 3765 13407 6128 
14528 14833 11994 6164 4808 12367 4701 11706 15120 
16092 469 17650 10757 14827 4865 12096 4871 13052 
11644 13378 7118 2330 17514 11797 7526 6385 11992 
16555 10647 9081 11054 10215 12742 4155 17064 16275 
4416 7774 3908 5062 730 5098 2865 5780 10013 
13762 7142 2196 7252 7827 2873 12672 12524 12254 
9450 5220 10080 11105 11308 361 3432 10575 11023 
17300 11175 17220 253 12615 11265 12956 629 17833 
17527 9425 2162 11829 10321 1753 13854 1446 15456 
5515 4640 5076 16462 12781 10804 6940 16216 14732 
17082 15185 12257 244 6679 3496 13021 6828 13382 
7741 8557 6254 6509 6124 5576 17056 16039 17689 
13492 5442 11001 5718 7350 7304 10155 5571 15045 
9358 2895 9823 7346 6554 1362 917 1427 8375 
4590 13613 6952 6216 12968 2074 1738 8775 15697 
3027 3223 5480 2546 8704 5889 3870 5486 9680 
3137 13973 17575 11329 5679 8164 12998 6588 4863 
11142 10791 4458 7015 14838 15538 12978 5079 16645 
12570 69 9303 16722 4526 11219 10677 14898 3528 
2035 2734 11764 8454 16672 9261 11166 1669 6593 
4717 5074 10726 14866 12037 1403 4958 243 8686 
3699 7884 16427 6470 9056 9978 9236 222 2564 
11720 4231 10727 15840 5211 2553 7868 3291 1541 
11336 5151 16944 9249 12009 11358 6896 15480 14153 
7094 5101 5507 12204 473 11133 12790 15484 711 
17337 6056 5769 8841 12629 4874 497 2575 15543 
13079 12453 15622 595 6745 2418 13455 10626 4490 
1213 49 13099 5954 17448 2075 14388 1545 14717 
6329 5903 9690 4687 14703 1711 17156 16539 3897 
12264 8179 1938 16198 2289 2176 2293 12327 5005 
10319 2830 10573 8837 15825 10445 13436 14266 11665 
14379 8172 9099 12851 9257 15969 3535 12556 12904 
2777 12695 5519 12245 10847 11975 7165 14103 10270 
2537 16877 9046 5842 9922 11914 1416 2408 6895 
9502 4976 599 5853 2475 12632 4219 16226 6927 
14323 16305 15752 12622 8296 4301 10441 14481 13162 
12124 4738 13371 10769 977 11767 12754 3317 16254 
17701 13109 3594 7288 9539 5508 10829 7190 9510 
15927 10698 11846 6148 17765 13393 16720 12517 245 
15852 14155 5808 884 11446 8665 10628 2000 10264 
5801 1354 14138 16889 16137 6477 5850 8097 15966 
8855 14334 13024 9754 14614 17309 2572 5761 4672 
11685 15356 13710 11907 1467 4560 4711 6800 7901 
16723 15824 9984 10765 13867 11533 5003 4758 332 
16380 14856 7477 8369 15595 8571 17210 6198 16257 
5558 648 8995 6587 14456 13353 829 4057 2153 
7845 7157 955 6388 2119 7966 15418 11556 14257 
9664 7998 4422 16126 16791 10329 7039 13337 12078 
12625 2969 2505 8698 11612 17038 1 8394 10296 
10934 14489 7893 1811 17755 12329 17051 15423 7116 
3884 11204 7795 6267 16057 6740 868 13857 4653 
8598 2027 2025 5667 11070 6769 10919 17682 4850 
13463 13778 14166 3917 7955 14588 8384 942 15183 
11190 5380 2788 9103 15556 10787 11191 350 4547 
4622 15451 14559 717 4877 16223 16588 4069 15648 
14530 17113 14831 17653 14736 15247 10078 10702 10014 
2659 6297 10271 1854 12443 16678 696 3484 8845 
6275 5479 7422 12692 1022 16266 17558 9027 17566 
10478 7703 10668 1925 8336 16424 727 7516 16568 
5727 16389 17513 4023 2780 5707 444 14948 8997 
13397 11402 2189 7392 4601 4927 6291 6944 11946 
17168 8606 5612 14573 14749 5526 9035 2317 11787 
4372 13147 13019 8654 15582 5310 4487 15379 13310 
4807 7733 597 13329 16741 7635 618 3993 8868 
16668 8516 10864 10345 10553 8395 3418 2999 5433 
911 35 8988 2554 1614 2787 6232 2719 14634 
13925 15234 5477 1774 16866 4406 8130 5391 1356 
8987 15245 9908 1531 15459 6990 7805 996 10930 
5686 34 10725 2907 3862 10969 11754 6012 2571 
15904 5956 13097 17275 11871 11658 17280 6825 16569 
1641 2367 13263 16082 1443 12514 22 1652 579 
6637 12674 12928 11433 3525 6432 9002 342 9494 
13054 6818 2441 7724 7501 13554 15237 3992 888 
8210 15422 11022 15446 14894 10357 3817 1292 2486 
8826 1244 6278 4445 15504 10360 7553 17501 6933 
13923 2675 6191 11235 12014 820 13952 14909 14296 
5623 13450 16143 17673 8220 14775 16355 12762 12126 
3839 16021 13266 2974 14054 5705 11274 13385 10135 
4009 11858 11217 11905 14122 4013 259 7072 12544 
6980 11980 2530 3910 2998 10018 12122 3953 11399 
4729 2538 9338 11102 14269 11838 11253 4990 5739 
9918 13757 5269 1466 4296 9898 13744 1433 14418 
8077 7275 12604 14444 4005 3821 5299 8129 6535 
1948 17085 12350 1549 4313 13453 5553 15745 11884 
8629 1077 17621 9332 9428 12337 17115 7690 17646 
17733 3616 13861 17744 2307 2014 3491 9190 7807 
14076 3578 14029 1886 14131 15287 7140 3191 15227 
7564 12030 15265 17052 14763 7891 12174 10830 12658 
14235 14576 5133 4888 6750 2715 6608 9169 3227 
10561 3617 6098 13793 8628 3888 1561 11392 14507 
2862 833 684 2750 13200 13951 16301 23 5653 
9362 9877 7089 15201 9208 7241 4898 2335 10646 
7171 8699 5426 15481 11504 15688 9418 2308 15844 
3856 10972 590 10644 6065 4751 10326 4992 12768 
16661 13297 14212 17398 2464 7742 10844 7952 6892 
14871 16348 16476 10907 9220 14311 14855 2976 14567 
17440 4139 2799 12550 3393 11321 1710 12779 13320 
9581 2646 17059 16714 6568 3960 16916 8080 14043 
16599 2059 12945 4589 4953 16926 16886 12133 16486 
17493 6872 10288 12511 2947 16999 7510 9617 10278 
9790 12774 7739 14808 4295 5744 13555 11048 4194 
7059 6590 3483 3348 15806 1569 10017 6744 9568 
14268 6885 7628 14342 4315 12513 17342 9286 16153 
13774 17050 15527 14287 4188 11712 1919 13166 14196 
254 12392 2748 12538 17529 3678 17098 9663 4243 
17345 2252 17849 12283 7609 1364 947 10094 2833 
4325 4286 1734 8095 13241 12820 17644 12319 3913 
11345 16676 16851 10909 12966 11538 8758 9779 4595 
9399 3824 3360 270 10939 4152 1929 13386 2805 
4511 13913 5476 565 7472 17774 16520 4105 468 
5953 13372 551 11596 16288 503 14300 12689 14699 
6463 1778 7010 1517 7200 3035 17201 13025 14681 
8653 7906 15854 6461 638 4909 14731 17697 6284 
1833 11885 107 1620 5077 3413 13469 6665 8858 
6181 12002 16536 9004 9337 5089 16548 4555 11794 
4952 13576 9689 5418 7333 7848 7434 7144 9863 
10641 4861 6768 11887 14988 15240 8382 4468 2875 
4398 15529 11425 3095 12655 8560 14301 12470 7475 
3254 14451 3853 14659 12194 7061 12527 17576 14343 
3211 2840 14607 541 10986 2271 17439 10042 16977 
16503 5191 3989 17351 3555 10145 4262 4436 13065 
1974 7874 5144 9682 13274 9388 4577 3905 13404 
14310 272 16861 7764 14770 10077 3073 1072 2052 
931 12908 17617 13719 6441 12294 5818 12382 1603 
17630 5461 6147 14905 8126 10631 16758 16983 10152 
15283 7611 2617 8741 7108 11611 966 6003 17436 
5693 11547 14514 9897 15349 8524 17312 13084 4347 
9431 10502 15956 7149 9938 11960 8633 8113 17258 
12965 5041 5548 8926 3459 15612 2029 1207 15435 
7147 436 11557 3359 13175 3370 6443 15157 8119 
6303 7854 3274 8259 2565 8169 11494 7043 15299 
8304 5644 4912 6318 14308 5042 6903 6647 262 
16262 15516 125 5830 13758 799 10297 5603 4334 
13614 4846 9349 2978 13834 91 8865 6717 3697 
9783 6111 17259 3275 12218 5411 10000 8712 2533 
3924 11601 8968 16177 10112 14936 7954 11443 1719 
9096 628 16703 8411 3408 17716 16710 3081 17642 
7417 14756 15827 1858 15308 15483 13196 3771 3068 
196 920 8604 14010 2125 13059 7840 10552 8053 
8852 10780 14674 6192 3629 12054 7339 13395 5155 
372 10035 15614 5871 9161 13002 12459 954 13730 
9591 4774 12484 5710 2847 16819 12730 11990 10994 
16961 4486 12763 14233 3141 4319 5999 12616 5338 
7711 16865 9903 7517 17674 574 1243 7946 10786 
10276 11766 16499 1615 476 11018 4214 3621 5190 
15837 9644 3238 10606 5277 572 12211 11743 15059 
8489 10554 4203 3719 14084 10889 10673 3818 974 
7206 5291 13340 16823 2743 9950 12408 15665 2186 
5784 4432 10532 17006 8853 1695 3099 3559 9108 
4894 1800 4048 9987 3940 15016 14383 2550 11148 
13273 6412 1021 13600 14263 16439 13780 15652 1129 
5186 16469 7973 12530 8478 4345 13176 6889 13999 
15347 7054 14046 2720 6926 16656 3646 8238 2151 
17019 464 14358 2058 17211 2740 8767 8594 10708 
13089 5361 14511 17699 13257 4626 4405 14220 2163 
3657 4697 4991 2384 8790 12217 14419 15271 11901 
16420 2838 11501 15517 10374 6530 6015 927 11410 
16311 6250 4716 7535 11647 8280 10226 2221 10992 
16046 10795 8631 5065 9385 10230 17431 4721 6442 
2201 8222 3885 5936 2924 5026 749 3706 11077 
15212 5036 13472 10988 15796 5499 16309 13040 4318 
16781 5633 11144 6566 9586 17722 6675 5149 4414 
10694 2824 4241 14954 10415 5851 1069 1075 4509 
15930 3277 8346 6386 8385 12031 9339 17036 7106 
7980 2618 11544 5187 15932 14377 17039 11951 8588 
14367 5038 5671 17162 16470 13222 2024 6261 2249 
15189 7859 13950 6226 16320 4163 11568 8073 11252 
1828 12941 10876 8676 13244 16586 5757 5429 2165 
6797 915 14337 9352 17080 8313 8787 13421 17823 
1808 10246 9055 13139 10690 13959 1080 11726 16623 
2988 7605 1840 9695 11186 5965 8568 8272 17670 
15141 11379 11589 9674 807 2133 9842 6460 510 
17108 1905 11669 3693 6378 13656 9655 7013 9415 
16707 9064 5222 10823 4305 13481 13960 10645 9740 
10724 6848 8316 4817 15034 15226 11421 8635 4649 
16240 8358 11130 9232 16763 13683 11185 16887 13199 
7332 6945 1680 4299 14920 8145 8730 1752 5783 
6062 7858 16006 8292 11047 4690 5052 10610 14519 
7596 8609 5941 3868 16790 1345 3153 12048 9377 
6039 14158 7882 15126 14469 6796 11136 14082 7908 
4510 5284 17009 6096 6437 1463 2678 260 2943 
2042 10207 14403 5959 2089 11518 8236 4792 13359 
6104 3101 3030 1777 8989 5961 10354 17629 12267 
9420 1413 14877 10019 9430 9485 1975 817 6894 
3253 4077 11259 12101 6488 10103 12972 4919 7524 
4371 10479 16895 9014 6984 1704 1987 10509 12312 
12870 7772 14011 16397 265 6684 13731 14720 4358 
1479 4130 17295 2513 6906 14325 14018 1277 16078 
16319 15000 2179 16825 11625 17040 8490 13926 2500 
17116 15404 6682 14516 15455 8940 116 319 2731 
12460 11708 8013 14210 6851 17110 9198 11489 17021 
12293 14409 10377 12160 14218 1149 15015 12802 7104 
9116 10434 16000 16872 13713 13286 13682 10058 9480 
11330 17848 3251 3465 8110 10743 1185 2853 7215 
9188 17121 13569 3547 5290 11642 16045 8753 12338 
4388 4835 3415 13699 15285 15289 6809 8860 208 
10533 13769 4696 15586 2521 277 3174 7456 6544 
5394 9649 437 15577 2094 14781 7336 17656 6776 
11566 11939 5197 13912 11836 8446 13473 165 17727 
15615 14278 13389 16705 9803 3049 16626 9381 15252 
5607 10699 11229 4625 8872 2603 10767 16726 17480 
3372 8253 1448 16768 1917 1508 17802 7476 8954 
13479 2240 5138 8540 5835 9201 9620 16465 17249 
6646 1161 1794 9907 17813 17226 450 432 17184 
1460 5894 234 9949 6177 14980 17760 12537 9105 
7886 11007 1750 8018 9613 7872 5372 3586 14728 
12151 926 16868 16706 6563 1088 4895 10528 8005 
8627 1633 6915 16603 14185 261 16679 3448 17742 
10737 4266 11742 10896 4699 10085 4676 880 723 
7869 15818 9804 4582 3550 14822 12175 9795 6344 
1879 11428 3721 14893 9071 3773 8242 14431 12301 
10667 3033 2896 16595 3583 6861 11745 5236 673 
13458 11856 4818 134 8317 1015 207 17840 5829 
1538 15445 1862 12572 9503 16818 7385 5598 4104 
6701 11171 2832 15050 16008 6194 1838 6515 8593 
15199 11930 9297 14534 3944 11335 17269 2185 14376 
2368 1475 8707 5910 3231 1332 7834 11123 10093 
11582 11730 5164 6523 11750 1097 11342 9258 17374 
12776 17216 10874 17002 17737 11565 13889 17382 1955 
8830 4933 6436 4611 16739 12386 12636 16994 10559 
10293 9570 16824 6876 10923 13526 15814 8646 1359 
12634 16290 12141 12381 9023 3355 14900 6112 8614 
929 7409 3644 5063 10334 6286 13590 17771 1516 