# vtk DataFile Version 5.1
Generated by LIGGGHTS
ASCII
DATASET POLYDATA
POINTS 17850 float
-0.00591256 -0.0287899 0.000540215 -0.00480053 -0.0289409 0.00057413 -0.00362728 -0.0291026 0.000609377 
-0.00247613 -0.0293282 0.000552107 -0.00133149 -0.0293508 0.000563196 -0.000181925 -0.0293155 0.000586046 
0.00116919 -0.0293621 0.000552071 0.00256673 -0.0293349 0.000539444 0.00375468 -0.0291362 0.000550686 
0.00481426 -0.0289964 0.000517437 0.00587863 -0.0287612 0.000574382 -0.00831177 -0.0282061 0.000790095 
-0.00698221 -0.0286088 0.000539637 -0.00411645 -0.0280913 0.000517062 -0.00289159 -0.0282708 0.000505399 
-0.00181379 -0.0283056 0.000574345 -0.000673933 -0.0283019 0.000540639 0.000453517 -0.0282721 0.000551493 
0.00186054 -0.0284864 0.000563233 0.00300276 -0.0283594 0.000528751 0.00428903 -0.028054 0.000562866 
0.00698243 -0.0286076 0.000540364 0.00800114 -0.0282142 0.000550879 -0.0103122 -0.0274756 0.000563204 
-0.00929555 -0.0278736 0.000528552 -0.00744186 -0.0276413 0.000529079 -0.00629662 -0.0278047 0.000516904 
-0.00527234 -0.0279478 0.00051684 -0.00336909 -0.0273282 0.000550929 -0.00228883 -0.027302 0.000530226 
-0.00120928 -0.0273491 0.000550995 -0.000152633 -0.0273629 0.000505844 0.00127698 -0.0274861 0.000586029 
0.00236425 -0.0275449 0.000505595 0.00341215 -0.0273486 0.000578058 0.00520317 -0.0273219 0.000516876 
0.00711676 -0.0275704 0.000504797 0.00907044 -0.0279651 0.000517565 0.0101168 -0.0275159 0.000609066 
-0.0124542 -0.0266134 0.000575072 -0.0113967 -0.0270929 0.000587069 -0.00943894 -0.0266537 0.000539618 
-0.00849029 -0.0271705 0.000539063 -0.00673367 -0.0268553 0.000527939 -0.00565816 -0.0269747 0.000528486 
-0.00459125 -0.0271844 0.000505064 0.000605881 -0.0265814 0.000539742 0.00432923 -0.0267259 0.00053943 
0.00624462 -0.0269181 0.000586525 0.00810967 -0.0271506 0.00051754 0.00914452 -0.0269093 0.000540473 
0.0112186 -0.0271955 0.000540322 0.0122287 -0.0267523 0.000562944 -0.0134343 -0.0261638 0.000505563 
-0.0115672 -0.0258964 0.000562227 -0.0105098 -0.0263437 0.000574267 -0.00862697 -0.0259576 0.00052806 
-0.00770399 -0.0264644 0.000524795 -0.00689332 -0.0258222 0.000516881 -0.00493292 -0.0262198 0.000517465 
-0.00390064 -0.0263882 0.000528692 -0.0028287 -0.0263786 0.000540942 -0.00151642 -0.0263004 0.000539561 
-0.000452761 -0.0263841 0.000517475 0.00219689 -0.0265095 0.000529079 0.00331914 -0.0261815 0.000608218 
0.00531726 -0.0262595 0.00055082 0.00636632 -0.0257744 0.000563432 0.00728731 -0.0264626 0.000550914 
0.00837606 -0.0260592 0.000609008 0.0101599 -0.0262988 0.000609278 0.0113132 -0.0260955 0.000562873 
0.0132041 -0.0262631 0.000529026 0.0141289 -0.0257741 0.000516712 -0.0147448 -0.0253907 0.000562795 
-0.0136693 -0.0251456 0.000540448 -0.0125846 -0.0253478 0.000562263 -0.0106907 -0.025279 0.000506051 
-0.00958127 -0.025349 0.00059816 -0.00581629 -0.0255444 0.000597164 -0.00437341 -0.0253218 0.000540214 
-0.00338962 -0.0255401 0.000961776 -0.00222766 -0.0254131 0.000596776 -0.000990953 -0.025357 0.000517565 
0.00013017 -0.0254357 0.000596812 0.00129146 -0.0256789 0.000586285 0.00241956 -0.0254315 0.000561905 
0.00352725 -0.0250918 0.000505615 0.00441242 -0.025648 0.000540579 0.00538519 -0.025181 0.000529078 
0.0074283 -0.0253331 0.000586103 0.00941145 -0.0254464 0.000528314 0.0106854 -0.025132 0.000585059 
0.011987 -0.0252222 0.000540245 0.0130994 -0.0251662 0.000574026 0.0150081 -0.0252691 0.000854906 
-0.0157772 -0.0248574 0.000540071 -0.0116376 -0.0248065 0.000528169 -0.00848114 -0.0248424 0.00059691 
-0.00733209 -0.0248487 0.000550772 -0.00631452 -0.0245641 0.000505989 -0.00488814 -0.024308 0.000595807 
-0.00301657 -0.0244989 0.000609139 -0.0017849 -0.0243472 0.000529079 -0.000703902 -0.0243025 0.000550992 
0.00105186 -0.0245305 0.000586683 0.0022028 -0.0243027 0.000585252 0.00448995 -0.0245671 0.000540593 
0.00654695 -0.0246159 0.000552107 0.00848045 -0.0248998 0.000551005 0.00978824 -0.0244469 0.000541636 
0.0114338 -0.0243075 0.000529033 0.014119 -0.0246367 0.000574048 0.0159405 -0.0247331 0.000562594 
-0.0166768 -0.0241799 0.000585998 -0.0157201 -0.0236572 0.000505871 -0.0148444 -0.0242685 0.000562568 
-0.0137316 -0.0240344 0.000599911 -0.0126088 -0.0242188 0.000562428 -0.0116421 -0.023796 0.00079848 
-0.0107487 -0.0242553 0.000516983 -0.00943271 -0.0242196 0.000540441 -0.00845897 -0.0236758 0.00056362 
-0.00724824 -0.0237147 0.000586019 -0.00592861 -0.0235578 0.000575147 -0.00389112 -0.0237371 0.000551663 
0.000245306 -0.0236948 0.000574018 0.00331445 -0.0240584 0.000551526 0.00558502 -0.0241541 0.000515484 
0.00763207 -0.0242507 0.000517312 0.00898006 -0.0236435 0.00059816 0.0125386 -0.0241488 0.000586253 
0.0135611 -0.0236487 0.000552142 0.0150663 -0.0241194 0.000506095 0.0160278 -0.0236226 0.000550836 
0.0170537 -0.0239596 0.000528786 -0.0184588 -0.0228658 0.000528259 -0.0176 -0.023519 0.000540314 
-0.0165959 -0.023009 0.000585931 -0.0145805 -0.0231613 0.000574011 -0.0134722 -0.0229525 0.000539793 
-0.0112637 -0.022859 0.000528903 -0.0104068 -0.0233691 0.000982051 -0.00943276 -0.023127 0.000551457 
-0.00784158 -0.0227865 0.000516378 -0.00485204 -0.0231204 0.000586469 -0.00248983 -0.023522 0.0005048 
-0.00146049 -0.023135 0.000597876 0.00109372 -0.0229724 0.000539607 0.00217382 -0.0229805 0.000540179 
0.00326561 -0.0229563 0.000551504 0.00425787 -0.0234641 0.000562914 0.00532563 -0.0231072 0.00056302 
0.00646974 -0.0232567 0.000562561 0.00758888 -0.0231839 0.000551137 0.0102009 -0.0234616 0.00052798 
0.0112584 -0.023242 0.000550761 0.0126396 -0.0230008 0.000563026 0.014565 -0.0231888 0.000552046 
0.0168635 -0.0228845 0.00056242 0.0178893 -0.0232925 0.000540844 -0.0193946 -0.0220472 0.000598078 
-0.0175183 -0.0222701 0.000585698 -0.015507 -0.0225207 0.000552125 -0.0123698 -0.0227245 0.000586031 
-0.0102958 -0.0223539 0.000562218 -0.00678907 -0.0226875 0.00053942 -0.00575205 -0.0224821 0.000516468 
-0.00372843 -0.0226111 0.000586354 -0.00240347 -0.0224583 0.000561509 -0.000444755 -0.0226525 0.000528338 
0.00423675 -0.0223248 0.000574632 0.00591726 -0.0222196 0.000505148 0.00698203 -0.0223197 0.000504853 
0.00836945 -0.0223838 0.00056319 0.00953043 -0.0225465 0.000608912 0.0106944 -0.0223204 0.000528394 
0.0117915 -0.0222759 0.000552077 0.0136452 -0.0225934 0.000506051 0.0145942 -0.0221203 0.000516566 
0.0155269 -0.0226403 0.000551599 0.0176813 -0.0221495 0.000517565 0.0187529 -0.0225365 0.000608829 
-0.0183847 -0.0216097 0.000505355 -0.0164246 -0.0218483 0.000585578 -0.0143127 -0.0215116 0.000596467 
-0.0132763 -0.0219144 0.000517109 -0.012234 -0.0215593 0.00058564 -0.0112122 -0.0218669 0.000818071 
-0.00928591 -0.0219378 0.000528966 -0.00822492 -0.0218007 0.000539687 -0.00644577 -0.0216386 0.00056231 
-0.00483246 -0.0219173 0.000562835 -0.0033769 -0.0215799 0.000505782 -0.00234677 -0.0213441 0.000552752 
-0.00131329 -0.0219713 0.000574661 -0.00023503 -0.0215701 0.000574879 0.000937305 -0.0216016 0.000597669 
0.00209391 -0.0218577 0.000586938 0.00322032 -0.0218651 0.000540055 0.00482984 -0.0213526 0.000563065 
0.00820927 -0.0213148 0.000517431 0.00949955 -0.0214252 0.000516182 0.012839 -0.0218914 0.000562912 
0.0138188 -0.0214362 0.000516757 0.0166325 -0.0217813 0.000563433 0.0184971 -0.0214423 0.000517314 
0.0197111 -0.0217839 0.000608937 -0.0202861 -0.0212844 0.000573603 -0.0184643 -0.0205598 0.000529101 
-0.0175036 -0.0210881 0.000517382 -0.0164877 -0.0206891 0.000577018 -0.0154383 -0.021281 0.000551969 
-0.0133725 -0.0208504 0.000552639 -0.0113452 -0.0208675 0.000539236 -0.0102556 -0.0211935 0.000597426 
-0.00892542 -0.0208898 0.000574928 -0.0073878 -0.0211354 0.00050666 -0.0055155 -0.0210646 0.00052908 
-0.00424658 -0.0209415 0.000574785 -0.00138289 -0.0208826 0.000516602 0.00223576 -0.020753 0.000527923 
0.00335039 -0.0207467 0.000586585 0.00596031 -0.0211317 0.000586464 0.00711974 -0.0212513 0.000574597 
0.0100434 -0.0205446 0.000517024 0.0108466 -0.0212503 0.00055203 0.0119272 -0.0212042 0.000528538 
0.0129727 -0.0207842 0.000550481 0.0149894 -0.0211583 0.000517014 0.016018 -0.0208285 0.000563488 
0.0174679 -0.0210959 0.000517291 0.0192666 -0.0207675 0.000504851 0.0204889 -0.0209388 0.000540549 
-0.0207802 -0.0202206 0.00059875 -0.0195779 -0.0203356 0.000610463 -0.0175194 -0.0199702 0.000585775 
-0.0154081 -0.0201547 0.000573976 -0.0143458 -0.0204009 0.000516604 -0.0123666 -0.020395 0.000552107 
-0.0103733 -0.0200465 0.000529027 -0.00798733 -0.020265 0.000550401 -0.0063731 -0.0204248 0.000540587 
-0.00500835 -0.0200349 0.000609588 -0.00282117 -0.0203599 0.000539312 -0.000818716 -0.0200014 0.000527821 
6.77808e-05 -0.0205352 0.000504597 0.00117404 -0.0204528 0.000574363 0.00440322 -0.0203337 0.000540593 
0.00550962 -0.0200242 0.000609527 0.00665108 -0.0202279 0.000550512 0.0077738 -0.0203052 0.000574482 
0.00893355 -0.0204695 0.000597964 0.010945 -0.0199507 0.000562232 0.0120711 -0.0201112 0.00057502 
0.0139836 -0.0204029 0.000528879 0.0150182 -0.0200897 0.000550842 0.017184 -0.0200419 0.000575053 
0.0182731 -0.0203753 0.000563606 0.0205345 -0.0198399 0.000528562 0.0215725 -0.0199646 0.000517233 
-0.0217964 -0.0196592 0.000562008 -0.0198408 -0.0192156 0.000528897 -0.0187866 -0.0194878 0.000550223 
-0.0164907 -0.0196113 0.000505837 -0.0145177 -0.0193239 0.000574144 -0.0135111 -0.0197911 0.000515874 
-0.0125534 -0.0193044 0.000552107 -0.0114379 -0.0197565 0.000573284 -0.00918985 -0.019794 0.000551395 
-0.00701029 -0.0195508 0.000540566 -0.00591149 -0.0192159 0.000607693 -0.00423353 -0.0193024 0.000937713 
-0.00305809 -0.0192038 0.000552107 -0.00192579 -0.0196408 0.000609653 0.00109916 -0.019248 0.000528242 
0.00214098 -0.01961 0.000574742 0.00356673 -0.0196294 0.000551822 0.00462392 -0.0192398 0.000574827 
0.00748925 -0.0192524 0.00051721 0.00853635 -0.0194021 0.000540128 0.00963118 -0.0195435 0.000562105 
0.0116351 -0.0190868 0.000538213 0.0131083 -0.0196247 0.000551235 0.0141366 -0.0193799 0.000505794 
0.01608 -0.0196799 0.000585816 0.0184296 -0.0192099 0.000551993 0.0194406 -0.0197045 0.000573503 
[...]
POINT_DATA 17850
FIELD FieldData 6
id 1 17850 int
4335 2229 1043 4241 2999 1852 4311 4980 561 
6068 222 706 705 6323 1004 2696 587 487 
3419 812 3201 4910 499 2956 829 835 6530 
924 3693 5707 4033 6586 1797 6666 377 6293 
6745 6298 15 2386 2087 4505 713 5553 5235 
971 5146 4331 166 6477 4559 652 3465 6856 
3424 2283 5242 942 6223 891 5519 4764 4896 
957 5234 1062 516 2827 4027 1079 1232 415 
824 864 409 4735 420 6881 1651 1333 4812 
4144 1713 6487 1589 2074 3388 6650 5008 5355 
2005 5923 147 4355 303 4047 4848 807 1642 
3841 6629 123 1251 5437 3691 2153 2159 651 
453 3875 4566 810 261 3501 145 973 362 
2216 3187 6495 943 5092 366 1942 2314 508 
311 515 939 923 107 1890 3596 6901 518 
5434 5623 4862 1751 208 4626 5605 4600 3915 
6180 1808 6667 65 4358 4629 3668 322 3047 
3309 4062 5379 4220 411 3630 3001 4507 78 
146 3967 2204 3523 4368 897 202 376 733 
2688 6589 6893 3395 1307 5166 3651 6608 5969 
3739 5996 1083 6889 1785 1648 6406 158 6662 
5530 4810 2934 3306 963 558 306 275 1688 
2054 4793 3150 6448 6518 319 6398 3041 894 
1185 2665 5558 6508 2767 559 3551 4850 1462 
2704 991 5409 2490 6451 777 165 2151 2300 
5959 463 5162 4004 6269 3222 6489 6771 4484 
97 1076 2089 2652 6304 3757 5305 481 637 
1223 4661 803 6896 2700 697 1107 4068 2648 
1553 3457 2431 785 544 2474 2952 5394 6028 
3029 776 4305 6581 2795 6242 3714 2797 4231 
4769 1022 6573 3822 31 775 2773 3579 2416 
6160 5129 406 5011 500 6724 2017 4057 2235 
704 6101 69 4604 2886 2571 1533 3023 3767 
1409 2174 3003 6470 1413 1225 5771 6566 439 
1956 1860 6563 3471 3258 191 1565 4612 1109 
3259 1947 6215 1370 2262 1963 6119 5349 1851 
175 4363 1666 1951 4758 4253 5505 5232 3250 
6325 1839 816 6399 4781 6810 126 5487 2518 
1345 5023 6885 5327 3919 2107 401 912 6552 
5079 3857 1041 5422 6084 290 5582 5542 2156 
1056 1546 3487 1008 1452 79 763 955 6351 
3042 5186 2876 2160 5315 2900 1905 385 1322 
1899 5913 6565 1636 4583 817 2892 1796 5127 
6584 5794 3591 904 3305 1447 3590 3311 530 
1853 3221 3799 974 2657 6412 1222 5405 1254 
3399 37 380 6060 4278 4631 3479 4576 4338 
1287 2950 4979 86 4219 5776 2656 4536 3030 
4846 842 1501 5039 498 789 375 631 573 
219 3719 95 597 1683 6408 3597 4226 4893 
5274 3952 6266 4215 1611 5033 5889 666 116 
4406 3194 2058 1082 298 4871 5632 1680 3476 
437 3628 4459 3809 6025 5237 3071 2965 3764 
1724 5838 1367 4103 4165 4288 3085 168 3401 
5101 5065 2505 2531 2535 3278 2354 1819 711 
4674 1000 2602 161 6762 6038 2419 2788 6834 
1103 124 1480 183 721 6756 2522 6125 1957 
5306 4745 674 5425 3544 21 1922 245 324 
2853 3895 249 3033 2967 1063 3897 5665 5740 
5104 849 5876 6592 4434 6326 6685 2198 1752 
1994 5067 4768 5266 1540 553 2637 4588 1277 
2030 1356 6291 2867 1997 1563 6056 5086 751 
4365 2712 382 1463 2446 1006 143 5667 6137 
2757 2155 5370 5789 772 3674 4413 46 248 
2274 5551 6163 580 291 2362 6014 533 127 
3392 4595 226 2026 5830 464 347 2723 4653 
2475 3865 3671 2132 1817 28 3664 858 1069 
5278 2884 1777 831 3475 5371 1040 4283 1504 
4511 6904 4371 2943 6205 2899 462 6460 4744 
679 3781 4742 6540 1240 2517 441 6196 5493 
5874 4109 2564 460 395 6183 5362 2006 294 
6316 2670 197 1355 2636 6224 3795 4482 5611 
3984 3159 3368 3161 718 5296 3485 2383 3903 
933 6401 6144 2609 4299 5061 1461 4414 5634 
315 3779 6219 2709 3336 525 4261 1653 839 
6564 4670 2882 5468 5032 4474 96 675 2734 
2690 280 6488 4711 630 2215 2119 5024 440 
710 3782 4956 2643 1215 4908 4804 3223 5714 
1151 3273 4623 1324 5337 659 6818 539 609 
5390 3237 5145 4599 673 59 621 4198 2918 
316 5138 6471 6320 5230 431 699 295 586 
4126 513 604 2019 195 438 2367 4282 758 
719 3803 63 3127 3944 2021 49 341 501 
1398 3900 3024 1921 5335 6879 526 2861 3704 
1048 1028 5211 1986 867 2214 3785 918 1436 
3909 4362 4950 6263 332 6339 101 825 3615 
1341 4267 4199 821 1620 5915 5029 813 5005 
3050 30 45 1731 3559 3836 2731 6542 4504 
4937 133 1217 2075 4300 4961 5188 1467 895 
497 4066 1566 1343 6672 865 4035 292 3589 
1588 938 6131 90 980 2694 3040 2687 6453 
537 2031 5343 1236 345 351 5106 6177 5226 
6557 1597 2046 3973 3724 6435 6297 774 4185 
388 320 176 1047 1733 961 446 4889 6252 
247 611 2774 5253 224 3926 877 5454 2991 
5752 1049 5770 2484 2811 6788 4739 259 2248 
151 2499 4642 236 900 1088 6797 5814 3290 
461 3851 92 5396 207 2742 4601 220 6371 
760 3271 875 3540 1009 635 547 5628 808 
6799 2401 1270 1330 3433 328 2613 2679 1190 
1887 489 4838 379 2039 4785 5321 1915 6229 
5957 1137 744 216 74 3358 3160 6469 2465 
714 2594 6005 451 1097 522 4092 1011 4122 
1337 4056 300 3154 260 1773 990 3870 5243 
3852 4971 5761 12 1779 506 2625 3420 4756 
1122 1328 5955 6531 3138 3560 6780 256 4522 
6001 1206 4984 992 4829 2910 6288 5105 1472 
2176 5144 725 5350 5925 1943 1847 3231 6761 
2855 1736 1991 2608 4540 4499 6850 4754 421 
4997 5599 2448 6100 2244 6664 2808 190 4024 
3083 870 588 360 4712 5942 977 4594 286 
3381 615 5817 3458 878 3108 2501 6539 3344 
734 4688 3735 2341 490 5844 6138 1077 1862 
181 695 4235 160 3753 684 4266 3038 1034 
2692 4995 5 1767 3313 5958 29 5538 3687 
3356 2011 2960 6158 472 3276 404 5686 357 
657 2428 457 2741 5917 6846 6855 3320 3236 
1599 2016 2642 4461 131 6874 6790 6559 3354 
712 4079 1722 2843 3113 4186 2340 3121 2237 
4970 3677 6285 3262 932 433 57 1528 3673 
1060 5897 687 6819 5231 1318 2921 765 4277 
6708 2721 5514 254 6576 1321 6433 4641 3756 
5148 1201 384 5472 563 301 2738 4085 606 
6492 6698 995 2963 1267 1339 1198 780 5544 
3524 4585 2626 1717 1571 925 5555 503 6372 
6257 4551 200 6550 2979 3508 1822 4171 2103 
3240 467 1235 61 4115 3655 331 6722 5308 
3692 1015 811 340 5574 432 1393 3295 2407 
2278 6114 4524 3091 732 978 103 3789 2144 
2192 2962 1471 5965 4044 3284 2130 4082 372 
4646 3205 6221 3554 5195 4061 2964 752 740 
5693 6189 1130 5610 2441 3402 1975 118 423 
5847 3531 2754 6617 1288 5463 4751 6582 1580 
2781 4681 50 1456 1162 2605 4801 3361 296 
3166 5058 4118 3894 1067 930 4129 5081 2344 
6577 73 2405 1136 1814 4238 1506 2784 339 
2762 3255 5706 496 642 6191 1798 4704 4419 
235 342 2422 4440 2502 2282 2290 1926 1591 
4689 5017 5882 1929 3061 1072 5085 5800 2926 
169 6153 3927 475 5268 755 3640 6267 577 
874 3393 514 10 2994 5950 112 1799 1633 
4080 2838 5318 6393 3587 5477 620 717 5835 
2523 6804 964 241 3220 6507 5267 140 3021 
6446 820 1120 4556 6484 6193 104 6058 5414 
5757 6407 5837 3950 5567 5705 773 6902 228 
665 4111 258 2453 5208 3188 669 2815 1465 
1416 3282 2464 6243 6329 3775 6277 1027 6661 
5879 4888 2299 4847 374 4973 75 678 4684 
4087 5641 1740 4665 838 1939 822 5819 3332 
898 2218 5573 413 277 6053 2347 4571 3430 
6208 3823 5147 4872 348 4378 5510 2415 582 
4596 798 5373 198 3784 6454 4515 1064 2647 
3678 815 1169 156 4403 6360 708 3925 591 
4139 2974 232 4859 4045 3 1020 448 5476 
4757 4791 6429 180 3805 1912 3447 1953 1025 
3778 4380 546 3667 5247 392 6832 6390 3933 
1161 685 739 2402 2084 3328 6346 5721 3947 
4706 2998 1897 2695 312 456 5501 2052 3409 
5727 952 1743 4051 5949 2540 4036 4537 641 
113 1693 390 5537 5443 5520 4239 748 2145 
5872 1229 5481 6500 5583 1403 2114 4870 702 
6220 394 4441 5862 85 5270 62 1883 6384 
3089 720 2 6127 1730 115 4007 3853 3963 
3663 2984 3253 4416 654 6096 928 1299 3684 
6113 4545 570 6512 136 987 1644 4050 834 
255 4584 1703 512 329 6763 3426 1911 346 
1539 2242 5962 6535 5898 4140 5865 1545 3316 
589 3062 1372 5015 6511 707 4575 4608 2387 
1234 947 1400 41 271 4110 3845 4824 2685 
1536 4307 1106 4849 3218 5577 6766 82 6413 
5043 557 2266 1519 3342 5132 4882 3504 4396 
5323 1239 4509 5840 3595 185 1238 150 367 
4130 2426 663 2106 389 334 854 5020 3384 
6383 4879 471 4832 5931 1036 844 2062 2409 
4475 2574 14 2092 2432 1931 6625 3659 2128 
3788 598 1134 6003 564 4856 2856 3759 2796 
1177 428 3606 6872 5989 188 5888 3413 872 
293 2845 3774 4343 602 709 6867 3934 3307 
5778 343 4324 4502 983 945 5432 2356 4467 
4339 2336 3292 474 154 1572 72 6462 5299 
1813 797 5050 6675 238 3013 851 715 4903 
3068 5715 645 4476 368 5303 562 436 5281 
6020 4531 6499 5346 2813 996 138 521 4699 
3729 2981 44 6754 2306 6501 4503 722 2371 
6200 728 3725 814 4306 1634 141 210 2369 
1698 3014 3709 1432 1126 4986 1124 3141 750 
64 3871 478 6152 2995 6169 4415 3293 6776 
6461 5415 4990 2745 1458 3204 225 5674 3212 
4512 2766 2854 2141 2088 269 5762 658 1793 
5637 5600 4447 5818 5827 5295 71 398 3650 
2807 3604 1334 3790 1619 2456 882 2997 7 
3698 2243 6903 551 3983 135 4031 1016 270 
1503 565 661 4214 2826 430 221 3184 1802 
4755 3051 3953 5669 2440 1671 4156 132 84 
6377 1513 1966 1576 2732 5191 6222 3938 603 
1024 944 5732 120 3087 6389 1684 3315 5344 
239 2468 2154 4480 6603 469 67 1184 6115 
325 2303 5174 2047 4272 2847 5034 1886 1148 
3804 284 6853 4222 1032 3096 1003 688 6411 
6077 1295 1714 827 3957 4749 16 427 2236 
2146 6787 6665 5576 3376 3322 531 1233 2288 
4418 5123 2148 3324 3545 5329 4954 177 199 
5541 700 1214 3638 985 3275 3173 743 1349 
3921 5755 3287 6464 3004 866 2621 5384 218 
2873 268 889 1807 4099 6216 3417 1209 3171 
2565 1065 1638 6400 94 1559 1166 2893 4321 
3039 960 3386 314 4598 2566 476 4367 5873 
762 4469 5404 1019 3542 3380 5091 1744 482 
2589 3495 1411 407 8 5277 6199 3877 574 
5639 1314 3675 1585 1518 2821 1564 17 4094 
3654 5660 6335 2840 767 4634 305 778 6703 
6705 2945 5297 1013 6774 1964 2724 3867 693 
5169 2263 2438 5066 1275 6852 2494 6327 2842 
794 806 6311 5063 5393 4322 633 5678 916 
1573 3685 6254 1221 855 1066 5586 2272 905 
701 692 784 2595 3647 1841 468 257 543 
802 201 5591 593 841 4114 369 5135 3434 
2271 1615 6000 2325 2226 612 1981 1365 3582 
622 4821 1850 956 519 5255 4992 1096 639 
536 363 1100 1769 2897 5878 22 1243 1892 
2117 1984 1824 1437 2525 402 4922 5615 6712 
4561 764 6615 6752 5956 1584 371 1646 779 
1919 399 148 4719 4663 1193 4349 2482 1001 
98 5448 3879 3331 39 5694 6905 653 4014 
2832 2207 2209 6302 68 989 477 1792 1186 
2295 108 967 5563 6404 1496 5711 650 555 
4149 4733 787 1464 6677 5717 1174 676 35 
6887 3970 1516 6405 1350 5658 3412 6583 443 
1900 6596 1958 2989 6443 871 6618 5723 3133 
3207 3454 6659 747 1976 2865 1537 5871 4497 
3167 2909 186 3568 5289 6157 590 2677 171 
54 936 1312 689 4245 91 1117 2746 935 
299 2768 1017 88 632 6175 5606 4142 2990 
6237 2399 1876 4333 1037 862 4116 730 769 
542 4714 3503 1727 4166 4203 1578 535 3864 
370 1252 4400 3848 397 4439 6862 6043 137 
2710 4743 4263 4722 3571 355 361 6359 2629 
3016 4865 5781 3272 1906 4450 5271 2363 196 
2481 3792 799 1834 326 5979 941 5056 381 
726 1682 492 682 76 1570 6801 215 3063 
6467 5661 3481 6525 2191 572 2719 4669 2588 
3555 2756 4746 2162 5511 159 486 4468 1269 
5456 507 949 1949 4374 3890 5982 6620 2737 
1568 6570 5022 3339 4315 4255 2772 6491 449 
5603 1579 3031 2436 237 596 1748 2348 1336 
5912 2753 3968 3639 1586 4454 2812 4425 1538 
3017 1283 203 600 442 3986 3749 6891 566 
954 4354 5981 3998 206 5943 2185 337 2352 
3954 3794 6509 716 117 2570 2823 3267 2131 
2973 283 3831 70 3740 1809 213 5687 139 
3530 610 3036 3690 3905 149 5592 2393 4710 
5130 1645 578 1655 738 634 5621 2930 1788 
5228 1637 6123 6347 4289 754 830 757 2172 
2644 130 847 4876 266 677 425 5718 958 
2081 321 3011 6442 548 617 3858 1284 2914 
6871 2222 4351 6315 480 504 5048 1242 5257 
4160 511 110 550 4705 6019 4734 2379 823 
4501 648 1673 6021 3600 906 378 3755 791 
6830 5460 2445 5534 1187 5052 1424 4625 4054 
182 109 970 1669 1200 47 5288 5449 6292 
4183 1558 5260 5202 4151 4782 5892 556 3169 
1556 761 3294 6026 2202 3405 1070 3588 6174 
3102 3172 4637 510 2924 643 3754 5643 4691 
3216 6425 2161 4533 2969 6209 4479 5622 445 
1782 1659 2939 1511 2954 2241 6061 2582 2716 
4464 601 1596 627 5313 6519 5492 1933 1582 
2682 2182 2101 3414 4520 3453 1663 5764 3444 
1014 4117 6168 1093 2022 4974 4649 4853 5322 
5445 4070 4775 3012 1132 6444 6796 2623 4028 
5664 2890 27 265 6842 359 264 5490 782 
5359 5868 672 4430 4184 4672 595 217 1171 
524 2891 2822 6431 3058 5751 927 771 5433 
2286 5796 4063 4320 2915 6571 6107 1163 3224 
6116 1845 6392 6465 4391 4285 1498 1935 5124 
4069 1091 6416 2323 2060 2170 5826 5455 81 
2328 3183 1575 1101 1494 6363 5301 2418 5276 
5036 5423 5171 1543 3907 594 1329 2786 6076 
1606 5947 174 4048 1908 1368 1392 975 1639 
6623 6261 2497 3048 1923 4795 4438 5380 937 
2234 3265 2615 4552 3837 5842 6478 6011 4839 
4336 3801 4227 3929 4470 4982 852 608 6317 
3052 2317 6270 2968 605 4402 3840 5045 4526 
1438 1057 4809 6159 4697 3777 6899 3008 5364 
5175 4397 2511 3711 3566 5663 1742 2259 4780 
6741 2863 6313 5474 4873 1051 735 287 3748 
6778 4633 6437 3248 2689 3592 3449 5397 625 
3609 4894 1441 5708 3460 2809 3310 3441 1380 
5368 5769 3648 6466 4121 4192 3526 2123 3624 
2703 3326 2163 5210 2663 4485 5328 3291 5832 
3812 2164 5419 6783 1454 2554 1140 3137 5856 
3143 5927 5019 3978 4477 2225 2534 5002 6241 
1695 2783 1218 5100 4465 3620 1181 53 2769 
473 3743 2532 2760 1893 5736 1780 3203 1346 
6283 6201 670 1657 5395 6083 668 5332 1092 
1925 6599 6106 193 5609 6532 5262 5939 876 
121 6146 5200 2458 1721 3914 5975 2654 3786 
3149 4218 4666 1376 5677 5941 3902 647 4845 
5480 1227 6866 4372 5891 2537 3213 3438 1836 
3317 5225 2728 2473 5218 4292 5690 4773 1732 
4683 4154 2150 6695 6135 6805 6533 2883 3364 
5224 2065 4748 6555 3428 5265 5539 5954 1535 
2324 2740 2037 4915 1667 1271 229 2408 3110 
6812 5012 3622 6755 4700 552 122 6380 4816 
4252 6858 1478 1147 3985 1601 4429 102 4340 
3931 4868 6671 3144 1811 1500 2925 4205 1135 
5203 3211 3814 6202 4591 4381 2118 1870 38 
1112 5649 1493 1708 3177 4806 3637 3442 272 
6817 1913 2650 3964 1763 4523 5377 4750 1199 
2333 142 5114 656 4405 2634 3513 5604 1554 
2097 1726 3705 6860 1670 5747 1354 984 5810 
5597 3215 2550 3106 2944 163 2098 1131 3811 
3243 3702 2050 5509 3387 2457 3055 837 6044 
5269 6719 690 1396 2951 2351 2851 5562 4550 
6251 1810 3783 2825 3712 2775 1045 3646 3097 
1253 2612 5215 4654 919 691 1555 2864 5068 
6179 2733 3411 3936 5057 2524 5407 887 3643 
3886 3423 2265 1141 3527 1448 5883 5540 484 
2660 4370 3842 2099 6757 10927 3382 4864 3766 
6732 3264 2955 5783 2678 614 48 879 2901 
1989 4726 4327 2085 2302 2327 3813 4877 3686 
6409 3065 5141 5059 4817 1718 1805 5363 4417 
4302 6548 3034 6065 4332 4597 6824 1531 4677 
2020 1176 1868 969 4935 2412 2417 2461 4958 
5418 1280 5118 6789 42 5691 1351 2213 2987 
3791 3298 5801 873 1617 5961 6541 426 6367 
350 926 6210 5055 6120 1081 5988 5987 4127 
6825 5887 4240 940 4369 6314 4907 2596 2749 
2258 4539 4787 5366 4323 5518 5219 2364 3940 
424 1443 6105 3285 4693 6102 1928 2189 4563 
1129 907 6543 1499 2874 1075 6039 5385 3242 
24 861 2961 1829 6046 3327 170 1459 3462 
416 3178 6716 6639 5150 6868 2253 5199 251 
1678 3049 5140 2068 1508 3818 5590 5193 1158 
886 6561 1497 965 968 2395 5304 892 2790 
2270 4967 1700 1224 5506 1593 1885 3002 1750 
5221 2224 836 3990 187 6808 6795 1544 309 
2186 3706 6382 1607 5164 5272 5251 1880 5201 
205 2281 6770 1308 2666 6657 6699 742 1477 
4692 5522 6906 3025 9224 4577 3955 6907 2837 
3750 13 1711 3728 2543 3583 1366 4212 1804 
1418 1168 3018 5875 5618 1264 1444 6646 1774 
5791 2250 1399 6344 6784 1705 5935 6840 4602 
4587 1195 2852 2177 6330 6457 6057 1725 3570 
434 4913 4592 2220 5854 2846 3941 2276 683 
1534 2828 5516 1371 6517 1604 5406 5864 1816 
5128 5426 6645 6821 4792 6449 931 5227 4716 
3148 1598 1541 1298 1479 6837 3182 1738 1197 
5928 2305 5579 5187 3896 4581 3261 3780 4586 
4155 6165 5040 3546 1820 5704 3493 2273 576 
2127 4233 2707 1203 1557 1719 5256 3717 4835 
3352 2949 4962 1428 934 4422 1394 2326 2033 
1405 979 2447 2070 1340 6197 4453 786 3636 
4148 6597 2169 1875 2477 4287 569 3103 3922 
4565 2619 6740 2791 3683 2049 4308 976 4725 
4747 4867 114 5528 5238 1630 3807 2147 4607 
585 2394 5504 4820 826 3762 1960 1971 2309 
2078 1439 6560 5382 5282 505 3567 4562 2603 
5464 3082 6601 2264 2651 2138 349 5907 5403 
1279 2404 1273 6806 1044 6279 11 5760 5352 
3125 3072 6777 4265 4189 2319 2476 6779 6333 
528 1159 3878 4041 3987 2906 3830 2143 5495 
667 2558 6773 3007 6651 2485 1306 6430 358 
1401 6877 2208 1765 2318 4534 3111 3682 365 
3972 5339 1988 2279 6473 2294 4463 2166 3179 
4213 4398 4279 3123 1927 1055 134 1685 1664 
6321 6848 2165 2620 3519 3155 2789 4881 584 
3612 1061 592 1023 1982 1115 1936 6079 3490 
3370 3028 3969 5813 5701 2711 982 4885 1466 
2000 2460 4352 2686 3094 3873 3429 4175 3209 
4972 5657 6598 3129 2083 4753 4487 2516 4994 
4736 6194 5565 3281 4356 3077 2115 2751 4384 
3949 338 3400 308 5167 4532 5111 2442 6238 
4101 1455 3118 4895 1073 1990 6118 626 5376 
6588 3219 560 910 3825 1473 4275 2111 6486 
2343 4174 6356 5083 6417 2576 6145 5220 6753 
4605 2858 2292 4991 5585 5290 1863 4543 3009 
1059 5713 1849 5517 2315 1389 1297 4738 2641 
1179 5633 4960 6172 125 6836 6071 5413 4107 
5179 6203 2561 3422 5753 3885 3225 1560 5071 
3421 4304 4968 2600 2805 4572 883 2664 890 
3416 1941 1433 1377 3797 4664 1315 2681 3976 
6590 6148 276 5726 5107 972 1196 6463 2715 
3403 6717 3269 3435 4493 3229 1303 5475 1549 
1204 868 646 450 3893 5557 3145 405 2463 
5284 2335 4657 2729 4615 1095 2120 2539 1924 
5932 3056 5357 373 3439 4034 1484 3170 4825 
3946 5689 5013 3318 5317 6691 5018 884 880 
4201 6265 6154 818 2598 6775 2676 5143 686 
5489 4006 4207 1992 4162 2526 3350 6656 4084 
5473 3124 3486 1514 2993 6299 3418 2898 4628 
5259 6240 3937 2996 2470 3355 5293 1515 899 
3616 2844 6725 6506 4685 5470 4345 2527 3776 
5485 5933 1353 6013 1278 408 5531 6185 948 
3195 2492 194 6890 2435 5890 4412 6578 5436 
5754 2787 4624 6234 5749 4259 4491 1980 3993 
5851 3586 3821 4632 3174 3157 6723 5850 3537 
6551 2389 5180 4159 317 5435 2885 3835 5391 
4944 2758 1888 3440 6300 6683 1383 575 6225 
2830 5679 3653 3565 444 3511 2841 1898 4206 
5673 5149 2038 2817 6447 6010 4884 4933 80 
4408 2923 1526 2879 649 4093 6274 3277 5766 
1068 1874 1795 5893 4254 3594 3059 6207 3773 
5991 2293 1830 3319 1882 3266 2638 5662 2211 
6546 1762 2785 4636 4558 1858 5119 1145 5584 
2223 6198 4455 3115 1309 4934 3874 1212 3632 
2868 1219 5651 5716 6086 3539 5438 2108 4431 
3200 435 4525 3961 4912 1837 4866 3888 5064 
3742 2310 2232 2029 6715 1525 2911 4548 4281 
5316 5659 4784 5408 2977 3765 5217 3509 2001 
1979 5737 5049 4949 2071 4941 5016 2370 5336 
3128 6792 1737 1182 6857 1720 2645 3122 6331 
1723 4152 6206 792 6353 4216 6067 3086 4567 
3330 2003 6151 5121 2905 2381 6572 2646 1715 
4010 3966 3289 4015 2799 6140 1761 1838 6055 
5137 4197 5652 4582 2495 4039 5843 6167 5743 
246 5976 3649 4645 192 2034 4761 3564 5261 
5900 1128 5918 6122 4857 1668 2002 4731 3079 
4472 4483 4620 3078 2380 768 2413 2546 4999 
5223 1172 2247 3135 3611 344 4802 6562 1867 
6362 3769 3826 458 5807 3345 1614 4969 4298 
4930 1381 5450 1486 6284 6092 4435 4919 2530 
3920 2077 2421 4981 1250 4909 1978 2563 3549 
1256 1487 1710 262 3190 5624 3962 2350 5822 
3575 330 5848 4375 4580 4410 5334 1794 3607 
2301 4089 5570 4120 3119 1529 5525 2624 3244 
4002 6849 3340 5866 5921 364 988 951 5122 
393 523 6030 6355 4840 1857 2320 4244 1550 
5742 2982 703 212 1245 6606 4217 6730 796 
36 3883 4513 3019 1105 2429 1600 2586 2538 
5513 4112 4262 538 155 5330 568 3076 3979 
1848 3681 2653 6282 5273 5381 5974 4590 2193 
1476 5829 5109 4443 6892 4329 6245 5684 2935 
1263 3772 2862 5088 6088 2548 2972 4097 6633 
240 3035 6042 4466 6181 5280 6831 2895 4237 
2640 1170 313 2829 1085 781 6455 2298 353 
6720 1955 5440 5307 1440 6338 5156 2601 4783 
3760 5294 2718 4078 2487 4803 741 1425 5811 
3563 619 3856 4376 2217 4983 6427 1453 1934 
4290 2246 3073 4720 5901 5700 3839 4678 4091 
5561 2675 6354 2872 4947 6112 1262 2420 902 
2599 4776 5666 3464 1422 2932 1625 1709 6294 
5244 6697 1775 1894 3580 1364 581 5076 4510 
2573 6439 3958 479 3489 1706 6440 6742 4506 
3827 5010 4125 4095 4177 2986 1363 532 3491 
5526 2816 6538 4852 6016 2913 6644 6734 5459 
2032 2765 2658 1338 3520 2357 2877 6643 3722 
6503 2978 3348 4516 6504 4905 681 2322 4774 
3064 1618 2933 4658 5670 5416 5960 4578 1347 
4200 4023 1046 2390 4317 1972 1735 1382 843 
4016 5388 307 455 5283 3625 4248 3843 2814 
6132 6632 2919 5325 1781 3618 3010 917 2434 
3044 1357 3132 1930 233 3247 3230 3701 5812 
6696 6575 318 6537 6494 3120 6066 1282 3252 