# vtk DataFile Version 5.1
Generated by LIGGGHTS
ASCII
DATASET POLYDATA
POINTS 17850 float
-0.00166596 -0.0279268 0.00535865 -0.00108923 -0.0263675 0.00483406 -0.00217905 -0.0233705 0.00563192 
-0.0206045 -0.0178473 0.00405665 -0.0049194 -0.0166298 0.00330146 -0.00254302 -0.0192869 0.000511095 
-0.0130142 -0.0183005 0.00330619 0.0115629 -0.0195545 0.00140073 -0.0184836 -0.0179009 0.00910715 
0.0145778 -0.0168247 0.000580998 -0.00845014 -0.0187265 0.00323015 0.0197794 -0.0121519 0.00478815 
-0.0110913 -0.018276 0.00274231 0.0104896 -0.0199832 0.0073652 0.0147966 -0.0102427 0.00557364 
0.000107289 -0.0159907 0.000957267 -0.0127155 -0.0164521 0.00434143 -0.0119551 -0.0126115 0.00549869 
-0.00175955 -0.0060986 0.00366363 0.00816086 -0.0126972 0.00402255 -0.0156974 -0.0150798 0.00166209 
-0.0199795 -0.00864927 0.00250535 -0.0226632 -0.0124362 0.00482874 0.0156524 -0.00859748 0.000927653 
-0.00240275 -0.00786985 0.00220591 0.0173571 0.000451145 0.00362346 0.00192345 -0.00769335 0.00344546 
-0.00633431 -0.00942962 0.00187332 -0.00191389 -0.00540418 0.00108483 0.00905139 -0.00399053 0.00820446 
-0.0287326 -0.00540431 0.00592236 -0.00913946 -0.00385339 0.00309911 0.0173764 -0.00502913 0.00480792 
-0.0180485 -0.00435172 0.000817434 -0.00796198 -0.00682398 0.000937871 0.00130839 -0.00370125 0.00814931 
0.0143556 -0.00255155 0.00125424 -0.0156668 -0.000345197 0.00784468 0.00669202 -0.00164925 0.00134569 
-0.00297183 -0.00022109 0.00132423 -0.00837181 0.00342876 0.00103181 0.00667726 -0.00190023 0.0030426 
0.00280232 0.00974524 0.0012476 -0.0184771 0.0105641 0.00283931 -0.00359088 0.00324911 0.00323907 
-0.0153245 0.00883704 0.00112279 -0.00247352 0.0029943 0.00359835 0.0253941 0.0105227 0.00342872 
0.0250477 0.00693748 0.00827935 -0.0187053 0.00740355 0.00169417 0.0258603 0.00799883 0.0083526 
0.00861981 0.00869071 0.00172721 0.00766684 0.0117229 0.000566919 -0.0211317 0.011105 0.00903592 
-0.0024419 0.0113238 0.00763979 -0.0188131 0.00877706 0.00305531 0.00710656 0.0164565 0.00121061 
-0.00133 0.0151277 0.00238168 -0.0258356 0.00846898 0.000608913 0.000910378 0.0135862 0.00387503 
0.00472239 0.0126791 0.00222887 -0.0138299 0.0179889 0.000704252 0.00663372 0.0148961 0.0080479 
-0.0130354 0.0141123 0.000682558 -0.0139875 0.0192683 0.00570684 0.0194274 0.0169972 0.00850467 
-0.00804305 0.0137919 0.00482315 -0.0100864 0.0230615 0.00308774 0.0156782 0.0198432 0.00172431 
-0.0162672 0.0183585 0.00225348 0.0127342 0.0244181 0.000895426 0.0130257 0.0210901 0.00442766 
0.0122129 0.0264391 0.00215935 0.0114276 0.0236933 0.000549955 0.0146264 0.0228502 0.00384441 
0.0181879 0.0230212 0.0058908 -0.0135153 0.0227306 0.00806516 -0.00414339 0.02294 0.00193685 
-0.00023365 0.0200404 0.00113112 -0.010185 0.0265512 0.00546654 0.00672039 0.0281604 0.00118735 
-0.00304702 -0.0275746 0.00541323 -0.0055289 -0.019802 0.00228413 0.00290337 -0.0203831 0.00199955 
0.00193232 -0.0221308 0.000863094 0.0138979 -0.0256952 0.00124868 -0.015735 -0.0224227 0.00769388 
0.0190615 -0.0190168 0.000763649 -0.00889437 -0.0200604 0.00249706 0.00762137 -0.0237886 0.00328824 
0.00639999 -0.0157345 0.00175456 0.0110208 -0.0231427 0.00237374 -0.00227798 -0.0204838 0.000594362 
-0.000959151 -0.0167532 0.00161961 -0.00142495 -0.0130941 0.00113308 0.0160621 -0.0232958 0.00227619 
0.00504649 -0.0185417 0.00793816 0.0166338 -0.0179823 0.00073305 0.0239474 -0.0148172 0.00127654 
-0.0141122 -0.0181085 0.00811533 -0.00413811 -0.0173777 0.00764704 -0.00224284 -0.0164277 0.00139818 
-0.00052014 -0.0179606 0.00363425 0.0107351 -0.0200852 0.00365658 0.0168831 -0.0134335 0.00131579 
0.0223896 -0.0191294 0.002999 0.0178662 -0.00807526 0.0042617 0.0260207 -0.0123131 0.00422794 
-0.0195312 -0.0171488 0.00398899 0.000220591 -0.0136019 0.000894665 -0.00451645 -0.0139796 0.000854888 
0.00176962 -0.00987945 0.00141414 -0.00806167 -0.0114341 0.00219447 0.00699042 -0.0125989 0.00725005 
-0.00836109 -0.00885164 0.00396158 0.00632843 -0.0124731 0.00218115 0.00535605 -0.00785781 0.00227585 
0.00941408 -0.0130871 0.00396558 -0.00543475 -0.0105413 0.0019609 0.0108375 -0.0137097 0.000979643 
0.0279242 -0.0089449 0.00679263 -0.0113853 -0.00526341 0.00297134 -0.00763532 -0.00861 0.0063637 
-0.0123642 -0.00435142 0.00163826 0.0120041 -0.00776298 0.00102111 0.00337591 -0.00521204 0.00706245 
0.0258263 -0.00480689 0.0064033 -0.0238034 -0.00623174 0.00552393 -0.0258742 -0.00657458 0.00491283 
-0.0171019 -0.00541639 0.0050197 0.00203275 -0.00577326 0.0051308 0.0158248 -0.00327418 0.000895603 
0.00389619 -0.00712908 0.00596594 0.0275848 -0.0018958 0.003514 -0.0140985 -0.00387714 0.00737257 
0.000156712 -0.00302951 0.00844553 0.0243683 -0.00303363 0.00765394 -0.0239748 0.00125431 0.00243417 
-0.0149713 -0.003399 0.00677132 -0.0064308 -0.00388093 0.00162925 -0.00358381 -0.00295559 0.00617922 
-0.0191196 -0.00564616 0.000716712 0.00885533 -0.00376906 0.00696782 0.0217356 0.00122963 0.00782872 
-0.0263711 0.00224009 0.000547119 -0.0180821 -0.00127549 0.00744991 -0.0153277 0.0025313 0.00104046 
0.00139975 0.00318529 0.00477352 0.00200365 0.00178263 0.00531661 -0.0186034 0.00410641 0.000997704 
-0.0170263 0.00411164 0.00832693 0.0160999 -0.00115819 0.000557054 0.0291857 0.00346604 0.00471695 
-0.026336 0.00574508 0.00159882 0.00918736 0.00707223 0.00536246 0.0144437 0.00397964 0.00548827 
-0.0269886 0.00752094 0.00120638 -0.0177782 0.00601178 0.00679886 -0.00155852 0.0051582 0.00580704 
0.0226724 0.00761964 0.00653771 0.00188229 0.00818813 0.00311265 -0.0247929 0.00995877 0.00612125 
-0.0215529 0.0154918 0.0016268 -0.00320231 0.012682 0.00127075 0.00460028 0.0116036 0.00477099 
-0.00374513 0.00958887 0.00410251 0.00107598 0.0116584 0.00161995 0.00947372 0.0101558 0.00129853 
-0.00538943 0.00803925 0.00272512 -0.0145739 0.0130393 0.000609506 -0.00789491 0.0127903 0.00821933 
0.00582466 0.0146291 0.0018059 0.0114682 0.0126999 0.00136693 0.025759 0.0132698 0.0023578 
-0.014046 0.0101709 0.000541277 0.00269518 0.0114686 0.00263609 0.0016874 0.0191509 0.00391757 
0.00563578 0.0151764 0.00300218 0.00612783 0.0142107 0.00897807 0.0155048 0.0179856 0.00358611 
0.0145084 0.0155305 0.00109088 -0.00466676 0.0200616 0.00314113 -0.0176988 0.0209409 0.000728363 
-0.0231822 0.0168479 0.00520821 -0.0108249 0.0180608 0.00954393 0.0133193 0.0193847 0.00799902 
0.00118921 0.0179905 0.000932161 0.0137146 0.021114 0.000672125 0.010483 0.0258646 0.0051578 
0.000393632 0.0288268 0.00948756 -0.00179142 -0.0258901 0.0104854 -0.000550481 -0.0256579 0.00753312 
0.00569402 -0.0287248 0.00440721 -0.00226361 -0.0266915 0.00476997 -0.0177525 -0.023073 0.00444866 
-0.00480974 -0.021467 0.00281635 0.00556738 -0.0217615 0.00160266 0.0122266 -0.0251755 0.00169485 
0.0123292 -0.0263791 0.00653137 0.00106676 -0.0225085 0.00279197 0.0175539 -0.0217176 0.00105204 
-0.0133364 -0.0260754 0.00152123 0.00968589 -0.0246248 0.00156111 0.0166786 -0.0206401 0.000637072 
0.00776037 -0.0182309 0.00129238 -0.000847453 -0.0173718 0.00797557 0.0118512 -0.0184305 0.00791268 
0.0138041 -0.0220662 0.00160559 0.00571493 -0.0176268 0.00469604 -0.00844816 -0.0177113 0.000996633 
0.0171804 -0.0167532 0.00119108 -0.019744 -0.0148517 0.00287202 0.00796061 -0.014604 0.00119196 
0.0141782 -0.0130758 0.00250301 0.0231307 -0.0156557 0.00791495 -0.0161729 -0.0142194 0.0104105 
-0.00319517 -0.0130105 0.00548851 -0.00387331 -0.0149942 0.00461707 0.0161587 -0.0148024 0.00582463 
0.0179741 -0.00720712 0.00215069 -0.000867043 -0.0111435 0.00872048 0.0139254 -0.0124757 0.00894164 
0.0213985 -0.0143855 0.00161246 -0.0060703 -0.0118295 0.000808039 0.00676996 -0.0028866 0.00464107 
0.00130584 -0.0108081 0.00487451 -0.0180767 -0.0157183 0.00141276 0.0214987 -0.00880669 0.00468121 
0.0160862 -0.0110788 0.00586658 -0.0195463 -0.00868786 0.00368599 -0.0182797 -0.00804864 0.0101039 
-0.0166579 -0.00510675 0.00166426 0.00727423 -0.00670895 0.00528943 0.00666205 -0.00821771 0.00399239 
0.00631043 -0.00715475 0.00798326 0.0166507 -0.00706997 0.00217556 0.0122806 -0.00839581 0.00526843 
0.0187474 -0.00689776 0.000873679 0.0114314 -0.00305922 0.00221403 0.0257824 -0.00314481 0.00808278 
-0.0257815 0.0025853 0.00195652 -0.0192601 -0.00660372 0.00262769 -0.00515861 0.00174248 0.000926386 
0.00904921 -0.00468688 0.00335104 -0.00774867 0.0023137 0.000952615 0.00284719 0.000191981 0.00164857 
-0.0205105 0.000714633 0.0050445 -0.0140899 -0.00324729 0.00230462 -0.000751139 -0.000552109 0.00233582 
0.00477803 -0.000593149 0.00454734 -0.00590196 -0.00262755 0.000769156 -0.00472016 0.00236324 0.00517724 
0.0185258 0.00224064 0.00460718 0.0266501 0.00111299 0.00725143 -0.022892 0.00112181 0.00138434 
0.012487 0.000574594 0.00779075 -0.0159363 7.90247e-05 0.000578581 -0.00509517 0.00166513 0.0103451 
-0.0252224 0.00174631 0.0030958 -0.0250507 0.00509845 0.00189675 -0.0125859 0.00681589 0.00379711 
0.023141 0.00227724 0.00527916 0.00865957 0.00125148 0.00528364 0.0120967 0.00322973 0.00237612 
0.0234895 0.00413956 0.00230927 -0.0160511 0.0041367 0.000703921 -0.0114075 0.00433043 0.00970512 
-0.00640594 0.00664418 0.00130697 -0.0281218 0.00693459 0.00377664 -0.00516009 0.00834053 0.00423468 
0.011017 0.00509241 0.00398297 0.0211215 0.0051994 0.00920048 -0.00609769 0.00677284 0.00315547 
0.00380141 0.00900985 0.00555934 0.00585588 0.000151438 0.00263422 -0.0110053 0.00998324 0.00133086 
0.00133238 0.00906905 0.00256793 -0.00387572 0.0115297 0.0036846 -0.0120516 0.00945307 0.00731188 
0.025334 0.00969789 0.00862391 -0.0226583 0.0117161 0.00443675 -0.0148483 0.0110303 0.00501742 
0.00503864 0.0124275 0.00396717 0.0162558 0.01382 0.006069 -0.00607829 0.0153533 0.00130713 
-0.00279609 0.0161445 0.00187842 -0.00535648 0.012851 0.00188096 0.00619361 0.0117614 0.0010062 
0.0261933 0.0104665 0.0044526 -0.0233595 0.0144336 0.00587041 -0.00467816 0.0151847 0.00111483 
-0.0119417 0.0146708 0.00686572 0.022315 0.0150618 0.00136847 -0.0131557 0.0153613 0.00243341 
0.00308487 0.0215627 0.000536111 0.0196073 0.0155765 0.00763564 -0.0180958 0.0125324 0.003305 
[...]
POINT_DATA 17850
FIELD FieldData 6
id 1 17850 int
109 487 252 229 324 897 863 970 144 
735 943 216 158 791 434 733 401 671 
1015 842 95 26 625 744 45 155 272 
887 489 773 920 880 901 611 606 92 
514 467 114 118 340 151 707 786 134 
964 575 407 255 809 779 784 692 149 
572 180 495 88 914 633 268 356 35 
212 215 680 221 596 60 189 66 893 
89 682 354 455 694 266 535 91 754 
651 937 376 322 15 97 1012 362 499 
191 297 202 452 904 261 217 385 584 
69 1004 464 81 927 176 1021 853 712 
248 249 416 699 300 974 291 963 895 
439 615 126 925 576 133 537 74 315 
4 197 656 346 349 506 828 585 635 
301 200 659 122 280 287 664 500 394 
448 547 875 478 868 274 210 372 238 
999 686 496 681 244 405 87 629 62 
542 64 778 562 138 156 796 960 827 
764 889 834 661 398 213 632 905 310 
159 616 723 639 628 701 39 590 848 
391 508 366 749 662 975 617 515 265 
453 777 652 706 556 303 775 306 864 
222 378 957 736 938 161 849 335 553 
530 86 183 28 259 845 142 275 820 
836 831 719 724 609 580 980 918 375 
163 626 933 758 10 456 649 281 798 
11 435 187 204 877 457 780 260 899 
302 944 494 100 742 755 851 188 76 
702 440 732 3 854 998 916 422 593 
80 696 569 196 710 983 676 996 73 
177 33 120 98 371 77 841 1001 997 
684 902 860 935 8 314 634 284 936 
644 622 293 493 769 967 953 299 770 
250 223 203 766 137 480 810 623 594 
65 516 25 162 713 846 311 804 852 
193 858 396 79 294 961 675 711 825 
821 224 776 605 721 673 640 1018 304 
71 24 1016 190 811 912 879 790 390 
341 740 990 227 907 258 525 951 339 
884 256 491 56 709 57 945 433 234 
948 555 402 444 270 220 368 708 512 
565 82 665 94 882 428 186 582 44 
797 167 532 34 400 568 325 485 1017 
117 318 465 866 282 447 511 321 973 
698 561 906 697 544 524 123 328 994 
550 175 40 395 861 170 807 53 242 
674 1008 388 1011 316 934 438 49 986 
695 955 1002 13 441 99 792 247 654 
1003 563 683 106 470 972 813 988 61 
502 330 570 800 309 750 814 338 588 
748 135 892 450 574 890 17 762 369 
598 271 952 430 148 557 423 603 862 
313 987 739 756 566 414 154 477 296 
206 326 730 612 716 239 650 218 538 
688 1005 896 610 278 425 624 263 917 
677 1 731 757 377 915 52 143 415 
128 668 631 124 691 127 803 48 245 
647 31 772 930 490 350 856 125 473 
873 727 982 83 389 373 911 357 753 
20 560 30 552 520 932 765 471 885 
36 725 169 141 276 700 554 41 108 
746 241 855 1013 9 333 678 16 966 
72 152 348 105 419 129 985 355 399 
888 847 908 458 618 178 352 412 409 
437 147 771 643 110 761 208 107 824 
637 869 165 18 380 219 226 426 822 
63 111 279 549 597 876 573 424 498 
774 992 921 404 539 501 461 5 745 
687 663 479 728 536 288 484 883 364 
843 269 669 993 112 521 334 928 254 
981 469 228 67 658 225 507 752 370 
283 367 818 529 214 517 534 139 801 
230 705 805 182 881 420 833 558 601 
78 359 298 463 672 840 886 816 533 
102 984 246 116 379 968 360 900 604 
232 789 277 393 466 645 181 614 115 
343 344 815 365 832 185 442 602 443 
653 871 492 209 541 166 243 319 431 
704 793 205 6 351 607 586 865 965 
251 429 113 374 717 589 591 720 289 
850 482 956 768 337 689 660 567 454 
383 962 510 763 608 146 835 874 481 
445 923 27 46 751 1006 513 121 406 
714 427 103 959 317 307 872 903 747 
741 519 913 922 361 583 941 257 381 
638 43 403 627 527 459 21 168 518 
174 991 42 595 59 207 347 817 51 
497 808 336 29 286 384 305 413 14 
2 331 546 715 474 1019 767 958 119 
909 599 829 504 327 782 37 211 919 
910 819 295 292 528 101 734 12 332 
540 630 690 1020 418 192 870 194 140 
436 838 363 358 253 201 55 22 954 
726 636 19 795 262 323 449 410 486 
971 613 666 1000 90 931 670 472 195 
621 940 760 50 421 620 978 312 505 
342 545 353 132 231 150 806 787 32 
581 54 70 655 578 950 548 812 837 
173 785 648 153 977 878 408 526 657 
646 577 976 446 503 136 667 685 564 
551 859 397 387 417 273 939 1014 47 
1007 462 264 1010 320 839 969 172 451 
826 96 235 308 642 693 160 844 85 
898 267 802 7 488 68 237 600 857 
729 799 737 738 285 587 823 184 179 
460 93 345 475 38 164 382 995 131 
75 329 236 759 392 84 703 794 619 
198 543 781 468 240 783 946 476 641 
989 171 743 722 157 949 571 509 58 
559 891 145 924 411 942 894 386 290 
929 483 926 867 23 718 1009 432 679 
522 104 592 979 947 523 531 579 233 
830 130 199 788 6764 1284 1043 6871 3161 
6672 3551 3401 1370 5771 5405 3276 6374 5266 
2643 5104 3865 3903 2030 2132 4646 3262 6234 
1190 6499 3789 4992 6048 4580 6748 4236 4245 
5619 3960 6223 4526 6291 6242 2183 1563 6160 
1277 1195 2401 3909 2679 5830 2046 3878 6052 
5220 3240 6698 5791 2647 6010 6902 2465 4970 
6484 2299 5408 1986 1120 5898 4763 1591 4239 
5591 3804 5169 5732 2823 6405 3872 4244 5914 
2374 1041 2112 4305 5789 5876 5675 6339 1868 
2636 5145 3678 5227 2037 4599 3782 2039 4739 
1534 1912 5143 4378 4512 4608 2565 6659 5873 
5286 5153 4651 6864 4528 4117 1797 4606 1271 
3465 1724 1504 2324 3714 6084 6451 4434 6576 
5628 3926 4153 3121 1204 3421 6119 4888 1201 
3255 4061 3524 3133 5989 5719 4467 3571 6633 
3119 4321 5916 1892 3831 3249 1906 3011 4054 
5162 4357 3919 6873 3294 2793 3069 4231 2771 
2518 6314 2602 2192 4044 3113 5599 3231 4490 
6053 3993 2407 5872 3145 5295 6725 1646 1363 
2228 2621 5647 3855 4710 3676 1365 3246 2104 
4241 6566 2704 1648 5234 3501 2797 2457 3651 
2918 6196 4653 3544 2367 5813 5253 3704 4369 
2963 3766 3587 2176 2266 4162 1169 6730 1513 
5022 3729 5063 1656 2719 5277 1283 1637 6666 
6478 2386 6830 6604 3952 6809 4253 2418 2416 
3777 3572 5468 3242 6281 1103 2950 3941 5472 
2075 1340 4300 5477 1799 1264 6722 5917 2319 
3120 1975 6511 3537 6661 3725 4930 4537 4882 
1585 5536 4909 2140 1952 4156 5467 2141 3845 
4876 2570 3847 1645 2149 4144 6060 4220 3460 
5676 3897 2475 6326 1905 4654 3476 2827 4282 
3785 1240 1647 1717 3458 2731 3066 3313 4499 
2605 1926 6675 5017 5318 3434 1981 5921 6077 
5130 5831 3404 2462 1087 6442 6842 1956 5826 
1232 1480 4165 6879 4126 6232 2248 5769 3160 
6457 3091 1471 6288 3236 2678 4574 1744 4050 
1400 2233 2438 1275 1714 6887 6558 3245 4149 
1269 1852 6168 6674 3341 3755 1947 2483 5305 
2965 6460 4413 1860 6035 6818 2864 3344 1436 
6846 1481 4688 3639 5879 6907 5537 1198 2353 
6446 1824 1221 6525 6199 4343 1304 4647 2684 
3584 1578 5603 5623 6323 2934 3630 5324 6880 
4650 1185 5327 6671 3615 2825 3282 3435 1217 
6845 5915 5268 2344 1184 1633 3525 2301 3354 
4866 3759 3220 3710 4821 6147 3998 1307 2696 
1181 2035 5767 5889 2567 5542 4583 4956 5336 
5385 4122 4587 1671 5083 3040 4167 5270 4889 
2694 5196 4849 6346 6243 4684 6245 3618 2730 
3860 6192 5456 3856 1748 6509 3031 5718 2772 
4850 4068 4363 5379 5553 1478 3719 3559 1853 
6296 2867 1048 4937 3336 4907 1467 3836 4371 
5304 6138 3896 6105 3447 4087 1939 4045 5835 
6128 1898 5088 3348 4776 1350 6400 5354 2434 
2363 5112 5723 2172 4043 6491 2930 6068 1673 
2700 1414 6097 4674 5345 1205 1028 5186 4198 
4522 4756 4519 6430 4247 3894 1588 2910 6531 
2998 5020 3483 2624 5753 2171 3721 1568 2162 
4311 5146 3029 2058 4916 5492 6789 4623 1141 
5230 2019 6850 5752 3673 6371 6626 4330 6193 
4341 6139 4140 2242 3659 2365 3413 2080 6813 
2796 2482 6132 1037 4719 2303 4116 2185 5823 
1613 4733 2348 3305 1079 6448 2161 6298 2914 
1942 4464 6215 2571 6304 5460 1223 2690 3394 
4292 1501 5957 3368 1330 2967 2837 4943 1122 
1733 6143 5350 3735 5029 2794 4757 5933 3883 
2646 6761 4620 6390 6095 2997 3495 1792 5672 
5511 1772 2181 5608 4673 3875 4358 6146 2716 
6466 3438 2431 3590 6810 6165 6762 3589 6285 
6799 5195 5040 2775 1459 1540 5136 3235 6257 
4093 5931 2387 5743 4275 3737 1212 4403 6506 
2923 3096 4222 1416 1334 6216 3848 3080 3626 
5228 2644 1643 6477 4533 5808 4536 5315 2156 
3814 5425 4406 2637 2788 4511 1270 3830 2405 
5510 4801 6588 4933 5949 1124 1238 5577 1900 
3412 4450 6768 1243 2478 6036 4134 4488 6303 
3798 3419 4184 4980 5434 4048 4848 3733 3224 
5838 4744 4601 5955 1731 4612 5495 3728 5793 
4751 4003 6872 2296 2128 5122 2589 6051 6359 
4166 2756 3207 4315 2677 3665 5632 5664 6530 
2107 3187 2473 1069 2657 1555 1135 1022 4588 
1593 5106 1077 5817 5544 4754 5706 2347 4972 
5273 4380 4475 3287 1106 2510 1525 6000 3515 
3386 6115 5330 3014 4268 6765 6402 1556 5566 
3600 4810 2924 3809 4935 1997 2882 5556 2790 
2341 4984 5814 1508 6707 2282 5148 5557 4007 
2762 1515 3393 2111 6449 3784 4238 1644 3062 
3511 3595 2420 2868 4870 2595 4611 2880 6733 
3850 5449 2005 5622 6856 1651 1565 4507 2665 
1546 6014 5211 6025 3566 3399 3034 2031 4199 
5624 2991 1805 4085 2276 3655 3271 2078 5081 
6206 4824 5357 5818 2933 6620 4842 1919 2047 
5668 4514 5427 4746 6518 3103 5794 2861 6637 
2399 2490 3071 4195 1723 5036 3169 1908 6763 
2315 3871 2635 5119 3324 3087 3938 5930 6328 
1596 5067 2535 5256 1339 1597 4129 3478 3827 
3568 1669 3870 6577 1519 2860 5652 2656 3094 
3170 1432 1837 5091 1923 5943 2087 4057 3319 
2986 2117 2795 6183 5505 2609 1162 2977 6059 
5329 2306 4559 5414 6058 5981 3811 1890 3494 
4092 3179 2737 4896 4240 5454 1703 3647 4078 
6461 6766 1349 3265 2833 3604 4908 2984 2964 
4706 4214 6857 2342 1293 1107 1287 4829 4986 
1844 3409 2106 2121 4261 5473 6890 6454 4503 
6135 1063 3917 4186 6780 4411 5393 1964 4958 
1774 1064 5827 2761 4339 2331 4454 3795 4641 
1032 1943 3682 4540 5416 6311 1564 3989 3306 
1056 5362 2734 2847 5303 4288 5053 2502 3328 
3332 6240 5960 2231 1062 4691 3264 4551 4758 
6158 1393 6318 2563 2746 6596 5913 3002 6114 
5050 4386 3915 1413 2611 2432 4642 1698 1047 
2784 3141 4159 5448 1749 4405 4047 2448 3508 
4401 5621 4027 6639 2484 5177 1214 2854 6315 
4736 5950 5840 3741 3074 4440 2921 3052 5996 
4400 3891 4267 5755 3339 1040 4208 2189 3292 
3201 4910 6116 1982 1599 1299 3675 6108 3841 
1989 4527 1097 1072 4106 4254 3933 6222 2747 
4481 2020 5426 1235 5573 3194 6541 2127 2232 
6220 2187 2959 3424 1463 6266 5212 4287 6510 
1978 1866 5592 4928 1242 1777 2281 2343 3794 
5765 6581 4387 2932 2092 2523 5605 1620 4903 
3877 4249 4335 2160 4979 3475 6144 1130 1503 
3736 2393 1171 2151 3110 3780 2402 2409 6696 
5674 3036 3985 2499 2979 1049 3790 6152 4260 
1462 5101 2383 4567 5856 4885 2130 5727 1065 
6787 2361 4697 4585 1372 2740 3317 3150 4742 
3239 1403 2879 6721 4846 4355 5969 3783 4681 
2426 2129 4419 3947 1389 3616 6712 1516 5912 
6293 2952 2692 6579 4094 6414 4586 1847 4838 
6546 1066 2710 4792 5958 5900 5956 6888 4977 
2300 2754 5415 1559 4354 6523 5282 1456 2866 
2512 6380 4665 3549 1766 6327 5667 3612 4139 
4872 1672 6557 5555 6134 5062 6411 2216 2229 
6724 2215 4461 6252 5693 1460 2949 6603 3384 
3017 5855 2436 5121 5785 2548 1642 1528 6268 
6394 4803 4243 3388 1341 4973 1148 5154 6629 
4793 5764 4782 5361 1719 2831 1953 1929 4183 
4299 1324 2068 6329 5015 6096 1096 4046 3267 
4255 6406 4781 3764 3522 6549 2440 4333 5048 
5773 2114 2724 2940 1084 3395 3221 5660 1166 
3202 1200 3259 2447 2506 6583 1688 5242 4414 
6753 4531 4289 6745 2274 3278 5132 5066 4661 
4625 2021 6564 2250 6801 2830 1537 4722 1538 
5530 6470 5611 2926 6189 3057 1583 5255 1655 
4497 4711 5582 6538 2243 2257 6715 5519 4735 
2258 5481 2840 2629 1083 2564 2517 2011 4919 
5762 1808 5225 2999 3648 1197 4950 6372 2738 
2695 3184 3258 2362 1931 6269 3955 1849 3358 
5520 2569 2904 3168 6650 2712 2670 4201 2935 
6623 4626 4070 3001 5203 1225 1082 4712 3861 
2821 6494 1543 5770 6797 5105 5034 4931 6453 
5032 2613 2464 6537 2655 2588 4484 6817 6452 
1817 4716 6005 6605 1035 4439 2054 3720 5761 
1862 3157 4496 6703 2209 6469 4051 5404 6534 
6272 2204 1851 4839 6685 3987 5208 1034 4934 
6708 4376 5750 3968 1447 3159 4562 4542 2859 
2389 6042 3275 5402 4368 1579 3181 2090 5421 
5491 5799 3507 3321 6104 2780 3881 2158 1320 
3800 6736 1610 2600 4294 6235 5698 5087 6352 
3037 2044 2015 5804 5179 1764 2376 6305 3971 
4811 1609 1421 4808 3657 5575 5264 3376 4652 
2585 3797 1364 4831 2591 6485 5700 6750 6529 
6387 3197 3924 1417 2268 4573 5846 3268 3633 
2023 1825 3840 5410 5983 4234 6129 3425 6709 
2508 3965 2157 6710 4353 5946 4221 4913 3238 
6341 1770 2619 5366 5151 6493 1220 1427 2368 
6173 4680 6332 6627 1406 4987 5617 6121 3263 
4119 1167 1149 6668 4905 1936 4664 5398 3518 
6658 5375 2179 1760 6791 4020 5102 6578 6256 
1410 6877 5139 6498 3743 6248 5535 1627 1268 
6437 4365 3032 4720 2972 4019 6246 3000 5126 
1759 3751 1675 5300 6322 5709 4553 3005 4377 
4639 6299 6585 3573 3280 4073 4940 2289 6054 
4822 1331 4422 5152 5009 5170 2985 5291 6669 
1194 4843 2173 2346 5073 6514 5581 3988 1840 
2110 4428 1699 1294 1470 4985 1323 5252 3019 
5729 1457 5894 5314 2908 5089 5780 2606 2349 
3882 5797 5990 6513 5739 4855 5030 2403 5103 
3747 4444 4032 2912 2385 2109 3826 1510 3448 
4270 1517 6553 3474 2040 1812 3901 1668 1446 
4578 2848 2304 1689 6133 2536 3854 3846 2529 
5572 5006 3935 5787 2056 3374 4143 1616 3898 
4730 2824 4904 1993 4471 5417 4675 6676 5240 
4194 1266 3727 1891 6063 6436 1362 4161 6259 
4284 2920 1747 4146 6773 4875 1237 6376 1973 
3629 5155 6785 1246 2661 6644 5458 5975 4622 
5133 2165 5054 2706 5090 1937 4188 2614 4029 
5602 1490 5725 3452 3134 6094 2392 1191 3930 
2577 1074 2597 2009 3951 6174 6690 5738 5080 
1431 2580 5276 3151 5673 1547 6186 5389 4703 
5651 6306 3214 5812 6343 4137 3527 2572 4274 
5160 4316 4955 3217 1071 4569 6613 5021 6820 
6050 1484 3095 4361 1078 4181 4318 5333 1407 
3410 2752 3163 2632 3834 5494 1826 4517 5590 
1155 4303 2980 4251 5893 2479 5279 6718 1594 
5968 3443 6621 6178 4952 5027 1832 5909 1491 
3866 6368 4685 5692 2917 6082 6369 6683 6295 
3505 6136 2584 4659 5044 4760 3107 6161 3270 
4225 5447 3439 6802 6024 1261 2466 5908 3536 
5695 1712 3209 6601 5351 2417 3862 2048 1042 
2066 3498 2509 6099 4042 2759 3372 2378 5977 
4656 6497 1658 1577 1821 6074 5703 1423 6310 
5222 1995 3939 5206 1679 4715 3829 3535 5093 
6375 5500 5446 6869 3488 4901 4446 1873 3445 
4570 6567 3164 4805 2701 5431 5172 5028 6713 
2337 1216 3652 1660 3577 1358 3746 6423 6333 
1192 2896 2116 2397 2966 1552 5748 2881 4295 
3637 3977 3859 3884 2750 4445 2350 6591 3304 
4939 5858 2195 4676 2777 6610 1505 6330 5963 
1226 2152 6731 1102 1961 3974 4328 6378 6230 
2507 4096 4957 5239 2443 3723 2528 3700 2803 
3248 3552 4346 5546 5548 4150 6882 6670 6324 
5853 6244 2199 1094 5411 1974 1160 3999 3398 
6641 6465 1632 5482 4462 3945 5060 3981 3054 
6397 6289 6793 4382 6689 2051 1290 4874 2804 
5710 1045 5003 3641 3645 4030 3026 1527 4789 
3538 3046 3053 2929 6149 5824 5884 2669 2313 
4001 2553 1803 5683 6342 3300 3140 6078 3562 
5326 3869 2222 2956 1449 5643 2736 5654 3892 
4616 4648 2615 5551 5704 1203 3526 6258 2723 
1716 1810 1492 4504 1736 3534 1445 1915 4643 
3593 1231 4005 3355 1377 2568 5995 1843 4055 
5583 3816 3853 3013 4634 2498 3685 4133 1608 
3126 2061 3890 4124 4203 3254 3309 5455 6519 
4062 4860 5306 1500 6179 3949 4768 5954 6401 
1819 2155 1355 6904 4726 5928 3350 6131 2244 
2598 5701 1685 6646 5470 2685 5501 3043 6002 
2766 6774 4202 2893 5142 5982 1570 3093 2196 
5836 4452 4873 2089 2954 5920 3597 5923 1325 
2968 1640 6508 3569 6540 1075 3050 4035 6471 
5337 1206 4155 1405 3802 5243 6746 6550 3205 
3807 2435 3775 5819 4584 4784 1743 6154 2429 
5888 5281 3266 4516 3698 4678 6679 3417 2126 
4468 1757 1949 1251 3596 4397 3003 4226 6770 
1839 3042 5370 5118 5649 3049 2757 5634 1820 
6100 3776 4056 4605 2774 1328 2828 2501 6221 
5757 5749 6512 6507 4031 1027 4699 3663 6355 
3879 4099 5384 2390 1252 5711 6175 1850 4827 
1696 3128 4669 2352 4705 5008 3876 6667 2262 
4667 6398 1575 6125 5409 3033 2531 5506 2660 
1311 6177 5396 2186 1343 5514 4594 3295 3188 
2715 6267 3208 1557 3426 4515 1794 1638 1437 
2263 5123 4858 2481 4841 4457 3530 2203 4425 
3543 5322 6026 2098 6044 3085 5278 4235 3433 
6874 3885 4277 4206 1353 4847 1545 3621 6331 
6754 2763 1174 3638 6087 4350 1255 4114 2722 
4926 2897 4291 2081 4600 4672 5078 6363 1356 
4474 5401 5057 5422 4482 3964 6102 1137 3803 
1337 2360 2608 5932 4571 6500 4415 2527 5443 
3051 1411 3212 3585 3039 6335 6338 2139 6503 
3427 2291 1186 2469 1426 5257 6586 6273 6889 
3041 2900 5394 2652 1109 6241 2174 4103 5224 
1752 6716 3620 3055 3980 5335 4463 2119 6367 
2627 2901 2253 5226 4607 6664 1711 2377 6539 
1479 2330 2237 2781 3925 1309 5641 6093 4480 
4575 1897 1161 1233 2088 2062 6148 6691 4713 
4718 6034 1625 3690 3114 4142 5934 4508 5235 
6881 6456 4966 6487 4708 3609 2773 2408 3757 
5487 2198 5480 4381 1461 2214 3712 1308 4961 
6001 5965 3118 3506 6067 1980 1693 6590 2413 
5010 3204 3004 2873 5606 6404 1702 4861 2973 
4862 5092 3523 2235 1254 3444 1533 5033 1683 
3813 3715 2742 3687 5231 1773 5925 3969 2279 
3370 1208 3166 4995 4572 3021 1136 5882 3937 
6030 5795 1814 2841 5962 6003 1529 3684 2336 
4914 4852 4248 5156 3010 1769 3503 3272 3459 
4732 2201 4833 4037 4160 5892 3257 6901 6028 
1782 1380 3326 1636 3487 1994 6695 1680 1131 
3702 5005 5887 2115 5874 6806 1875 4101 2144 
2843 5847 1614 6225 5159 1619 6345 4755 2247 
2415 1573 2945 1100 1586 2295 3116 3694 1117 
5014 6157 2812 1202 3691 5707 6425 6589 6180 
5166 5232 3767 1721 1409 5086 6755 1928 3131 
1399 2514 5907 4111 2340 3284 5863 3677 1549 
5258 3138 2676 4859 1025 1219 1539 5135 5679 
5376 6113 4476 3963 4506 5778 3135 6606 5344 
3610 4364 2494 5108 2865 4223 1474 2379 2159 
1532 1751 1392 1164 3900 3030 4777 6316 1227 
5024 1151 2208 2852 2395 3127 3420 6699 6194 
5517 3519 3611 5926 2453 1196 1412 5107 4441 
5259 4884 5016 4545 5637 4469 5323 6167 2807 
2877 5360 1209 5984 5687 6123 1784 5512 4948 
5260 6019 6416 6532 4278 4871 4438 6106 5114 
4283 3857 4258 4750 4683 3779 5219 5686 5618 
5854 6597 3108 5844 4115 1044 5538 6598 2962 
1822 1506 4556 2103 4704 6723 4615 5267 4082 
2211 3357 5662 4856 3086 2371 5072 3542 2468 
6678 3044 2375 5399 4906 1369 1153 2191 2427 
3905 4040 2764 1682 3986 2753 4498 6347 1329 
3668 6489 6101 4576 4356 1322 5011 5274 5740 
2505 6592 5371 1354 5810 6488 3213 6015 3154 
4215 3750 1544 3290 1950 5378 3125 3356 4835 
3825 5610 2120 1631 6360 6447 2002 1874 4968 
3966 4307 6832 3565 1603 4039 6562 4217 5263 
1347 2271 3173 5678 6459 3867 4598 5694 5871 
4865 5616 6611 1686 3708 4741 2122 5428 2667 
3414 1551 1469 2283 3048 2241 5744 2739 4679 
3579 6898 2234 2835 2769 4745 4868 1922 1352 
3479 1726 6219 1921 1755 3984 3724 1765 1604 
4881 3182 6393 6433 2838 3692 5018 3950 2996 
4416 2424 1882 5904 5716 2356 4832 5147 1793 
5432 1245 2275 5440 2357 6462 3921 4049 5287 
6647 4714 2798 6468 5442 3954 5423 3405 4391 
6351 6885 5023 2925 3311 4338 1780 3591 3686 
4458 6788 6542 4075 5493 5352 4867 3560 2016 
3028 3873 2267 3554 3893 2145 5851 2974 6619 
4689 3778 2856 1536 3316 1234 5715 1634 4443 
6705 1615 3331 5283 4347 3063 2307 3763 4351 
1454 4566 1511 1828 5712 1333 3748 1951 1796 
6399 3628 5262 6224 2955 1236 1215 4670 2811 
1789 4323 6297 1444 1887 4534 5531 3402 6153 
4408 6277 3115 5766 3821 1419 3653 6379 4983 
6353 6385 5137 6701 3606 6776 4344 4105 2981 
6853 5561 2599 1976 6340 1841 1727 6752 3772 
4263 5640 4285 5578 4505 3592 5558 2497 6747 
2892 1899 5419 4523 4773 6137 2709 4804 2006 
3646 6336 5642 4109 4011 3285 4923 6320 5997 
4535 4148 2594 1060 3756 2477 5721 1730 4010 
2003 3322 6535 6381 2995 4262 2813 3709 3650 
4290 5614 4818 5056 1809 6481 6021 2074 4637 
1582 5355 5788 3528 5185 2028 2749 6431 3929 
6608 1742 2554 6552 4845 2943 2853 5714 1653 
3548 1472 6757 1678 5896 5730 5321 3546 2808 
6717 3640 6790 2290 3038 3531 3277 3594 5862 
6362 2288 2067 4250 3734 6020 3330 2369 4749 
2732 3064 1930 5325 6403 3642 6237 6862 4911 
4395 4740 4033 3812 6893 1663 5437 3819 6805 
6205 1222 4877 2351 4218 3818 6039 2906 4693 
2625 5372 1321 5897 3403 3927 3061 1104 4596 
5204 6208 6472 4491 3793 1883 5247 1911 3345 
4130 5971 2077 2148 4447 3983 2487 5174 1046 
2226 2768 6302 2437 1876 6142 1336 6891 4242 
2239 6687 4734 2423 4151 3105 4430 2388 5292 
2699 5349 5129 6038 1367 2163 3895 5861 2118 
3411 3623 3273 3228 6344 2384 6819 4185 4677 
2280 3540 1541 6560 4592 2394 4084 6651 1571 
3422 1740 2994 4097 6287 5038 3509 5659 4879 
6169 1802 6377 6389 3953 4091 3035 2826 5669 
1518 2989 2154 5615 4549 2345 5781 3660 5098 
3838 3365 3555 4374 6236 4269 2889 1424 5751 
5445 2582 1070 3047 3058 2886 4828 6771 3739 
4121 6812 4769 4700 6584 6412 5776 6859 5332 
2899 2612 2099 5221 1081 6719 1705 5509 2251 
4066 2666 1088 2166 6229 1133 4006 6233 5307 