# vtk DataFile Version 5.1
Generated by LIGGGHTS
ASCII
DATASET POLYDATA
POINTS 17850 float
0.018618 -0.0209008 0.00101746 0.0201619 -0.0210005 0.000959449 0.0190097 -0.0188868 0.000973996 
-0.0128673 -0.0178732 0.00113655 0.0154183 -0.0179138 0.00100652 0.012456 -0.0162779 0.00103937 
-0.0139799 -0.0171576 0.000981565 0.0189781 -0.0165296 0.000976655 -0.0126511 -0.0154507 0.000965319 
-0.014418 -0.0159317 0.0010116 -0.0111422 -0.0150722 0.000968961 -0.010865 -0.0138131 0.00106119 
-0.00373662 -0.0138305 0.0011778 0.00432857 -0.0138591 0.00120917 -0.0129714 -0.0144436 0.000961707 
-0.00635288 -0.0126655 0.00103359 -0.00855848 -0.011597 0.000981248 0.001727 -0.0124799 0.000989275 
0.0194542 -0.0139604 0.000961627 -0.0139406 -0.0121615 0.00103289 0.00304385 -0.0111404 0.000942644 
-0.0276734 -0.00922436 0.00125696 -0.013607 -0.010968 0.00096462 -0.0120101 -0.00950316 0.00105917 
-0.0108384 -0.00969812 0.000969727 -0.00550535 -0.00867675 0.00100726 0.0268157 -0.00888537 0.00103254 
0.00365074 -0.00775606 0.00103567 -0.00389415 -0.00790368 0.00104528 0.0258762 -0.00660718 0.00100877 
0.0284927 -0.00646756 0.000955124 -0.0265634 -0.00522498 0.000989477 -0.00319589 -0.00618837 0.000935581 
0.0276901 -0.00580589 0.00100408 -0.00522952 -0.00730186 0.00109025 -0.0282708 -0.00287708 0.00101381 
0.0290206 -0.00303332 0.000970639 0.0275515 -0.00175373 0.00137104 0.00207308 -0.00164243 0.000951964 
0.00397933 -0.000766106 0.00107051 0.000789409 0.000400816 0.000966543 0.00268361 0.000202903 0.000995941 
0.00409455 0.000396643 0.000950678 0.00520134 0.000189626 0.00100722 0.0229462 0.00248265 0.00099293 
4.58772e-05 0.00165233 0.000985468 -0.000840755 0.00294184 0.00097603 0.0042677 0.00185077 0.00105879 
0.00642525 0.00207841 0.000943547 0.0241079 0.00417364 0.00104378 -0.0271962 0.00263705 0.000966926 
0.00265147 0.00271636 0.000989053 0.00554651 0.00302014 0.000995161 0.00663912 0.00317754 0.00102542 
0.0106449 0.00335557 0.00126011 0.0216703 0.00397063 0.000964011 0.00249153 0.00408453 0.000997462 
0.00416443 0.00344226 0.0009632 0.000646391 0.0044742 0.000985785 0.00481623 0.00462646 0.000936714 
0.00596912 0.00429131 0.00102196 0.00879503 0.004802 0.000958575 0.00438506 0.0055751 0.000979232 
0.00577171 0.00568957 0.000991419 -0.0215983 0.00680596 0.000984629 -0.0159151 0.00759034 0.000963778 
0.00214906 0.00597791 0.00092768 -0.00150514 0.00815972 0.000990079 0.00595007 0.00699271 0.000973211 
0.02187 0.00721908 0.00103428 -0.0215007 0.00801342 0.00101399 -0.0169701 0.00766915 0.00097782 
-0.0146432 0.00800516 0.000948738 0.0195827 0.00923219 0.000957742 -0.0213697 0.00910629 0.000974653 
-0.0132841 0.00902459 0.000967686 -0.00898306 0.00921985 0.00102514 -0.005204 0.009709 0.000967852 
0.0035074 0.00867845 0.000970338 0.0177216 0.00885535 0.00103926 -0.0279253 0.00944867 0.00111159 
-0.0224148 0.00943008 0.00102831 -0.018999 0.00932739 0.00100583 -0.00662705 0.00920875 0.00103205 
0.00148899 0.0096937 0.000965622 0.00275686 0.00949988 0.00106657 -0.0247968 0.00907545 0.00097715 
-0.00726921 0.0103795 0.00103091 -0.00585366 0.0107706 0.00104952 0.0195518 0.0105849 0.00104081 
-0.0272989 0.0104569 0.000967249 -0.0242575 0.0107997 0.000969124 -0.0186356 0.0109851 0.00112662 
-0.0150005 0.0109603 0.000963748 -0.0114438 0.0114547 0.000978288 -0.0262928 0.0108909 0.000979461 
-0.0223914 0.0124523 0.000974404 -0.00789614 0.0113542 0.0010484 -0.00695135 0.0121823 0.00102533 
0.00569737 0.012862 0.000962686 -0.024356 0.0131538 0.00106989 -0.00638777 0.0137941 0.00115863 
0.0134681 0.0124259 0.00124703 -0.00734129 0.0132642 0.00102376 0.0157599 0.0137421 0.00123207 
0.0200198 0.013313 0.000936477 -0.00965 0.0145184 0.0010541 0.0234482 0.0149515 0.00100208 
0.00688395 0.0159012 0.00103375 0.00866076 0.0149334 0.00104533 0.0058422 0.0163471 0.000937411 
0.00863977 0.0161384 0.000951844 0.0103981 0.0169799 0.00105492 0.0127253 0.0158741 0.00123567 
0.0192794 0.0157951 0.00102824 0.00502572 0.0179515 0.000949683 0.00699378 0.0182905 0.000976498 
0.00280034 0.0189879 0.00101701 0.00385064 0.0187192 0.00112322 0.00591612 0.0187626 0.00102226 
0.00894679 0.0180577 0.0010347 0.0216082 0.0168144 0.000948884 0.023564 0.016997 0.000954155 
0.00462561 0.019684 0.00111577 0.00803122 0.0185346 0.000945899 0.0211721 0.0186074 0.000985847 
0.0226559 0.0187452 0.000986037 -0.0114243 0.0206578 0.000975242 0.00838352 0.0195383 0.0011219 
0.00433241 0.0210139 0.00108545 0.0079233 0.0204696 0.00155458 -0.0124259 0.0226183 0.00124507 
0.00977373 0.0220506 0.00122221 -0.014896 0.0227943 0.00105559 -0.00894889 0.0235456 0.000953326 
-0.00631559 0.0237508 0.000980615 0.0119836 0.0226704 0.00115209 -0.0134893 0.0229812 0.00114149 
-0.0105624 0.0237532 0.000992693 -0.00616992 0.0248575 0.000986258 0.0153557 0.0232244 0.00112597 
0.00930016 0.0262969 0.00104472 -0.00462393 0.0277051 0.000969971 -0.00287859 0.0292927 0.00104068 
0.00468987 -0.028938 0.00269383 0.00155465 -0.0280234 0.00358384 0.00691635 -0.0272254 0.0031372 
-0.00180355 -0.0268436 0.00277767 -0.000332513 -0.0267625 0.00345656 0.0106603 -0.0265727 0.00347451 
0.00829087 -0.0255796 0.00322544 -0.00119033 -0.0253095 0.00277623 0.000976951 -0.0250606 0.00197232 
0.0124359 -0.0251744 0.00275561 0.0133896 -0.0249743 0.00333161 -0.0158446 -0.0245128 0.00278749 
0.00117095 -0.0234797 0.00187779 0.00246453 -0.0237558 0.00287579 0.00367184 -0.024134 0.00278578 
0.0113995 -0.0240656 0.00267935 0.0154099 -0.0243939 0.0027114 0.0167434 -0.0239435 0.00183481 
-0.0168611 -0.0237515 0.00314335 -0.0148498 -0.0241619 0.00229887 0.00593611 -0.0244499 0.00245133 
0.0101853 -0.0239811 0.00297487 0.0128991 -0.0240833 0.00264244 0.0146953 -0.0235741 0.00280466 
0.0177878 -0.0234253 0.00213847 -0.0180343 -0.0230409 0.00112542 -0.0157785 -0.0231833 0.00292565 
-0.0139861 -0.0230151 0.00293844 0.00666098 -0.0230434 0.00207144 0.0128743 -0.0229497 0.00274044 
0.0137457 -0.0228521 0.00212586 0.0167794 -0.0221754 0.00176004 0.0179212 -0.0231997 0.00111747 
0.0190237 -0.0223672 0.00098512 -0.0186863 -0.0224224 0.00257238 -0.0171115 -0.0222089 0.00270054 
-0.0155998 -0.0223376 0.00205196 -0.0135603 -0.0219463 0.00302207 -0.00632042 -0.0225346 0.00244609 
0.00778519 -0.0226045 0.0026432 0.0103774 -0.0223811 0.00260088 0.0133626 -0.021911 0.00174961 
0.0150851 -0.0225755 0.00180577 -0.0203124 -0.0211125 0.00291643 -0.0180597 -0.0216271 0.00189525 
-0.0164489 -0.0215029 0.00206087 -0.0140469 -0.0215916 0.0014525 -0.0100314 -0.021485 0.00312315 
-0.00796749 -0.021201 0.00274889 -0.00679971 -0.0214438 0.00307794 0.00361612 -0.0208774 0.00237534 
0.00448671 -0.0203211 0.00268874 0.00566308 -0.0213084 0.00330481 0.00868976 -0.0219341 0.00244314 
0.0115343 -0.0214331 0.00220707 0.0146997 -0.0208186 0.00101663 0.0159546 -0.0214054 0.00146316 
0.017591 -0.0213575 0.000964331 -0.0191356 -0.0209037 0.00209451 -0.0173222 -0.0206284 0.00178761 
-0.0117926 -0.0205467 0.00199506 -0.0110142 -0.0200816 0.00271767 -0.00573832 -0.0206912 0.002919 
-0.00307995 -0.0213181 0.00255922 0.00713715 -0.0208379 0.00221317 0.00920294 -0.020879 0.00266008 
0.0105287 -0.0204837 0.00180462 0.0122568 -0.0202281 0.00160377 0.0157707 -0.0200813 0.00138482 
0.0170307 -0.0203504 0.00119176 0.0179723 -0.0201729 0.00167044 0.019348 -0.0199632 0.00116617 
0.0209059 -0.0206891 0.00160467 -0.0202392 -0.0199812 0.00269684 -0.0182778 -0.0201964 0.00198693 
-0.0151381 -0.0195886 0.00173971 -0.0139778 -0.0203703 0.00171637 -0.012479 -0.0197585 0.00228243 
-0.00773086 -0.018826 0.00168369 -0.00534449 -0.0190842 0.00172235 0.00169588 -0.0187738 0.00301137 
0.00437999 -0.0193185 0.00329867 0.005549 -0.0193445 0.00299955 0.00822136 -0.0199488 0.00209076 
0.0133594 -0.0198284 0.00150455 0.0204085 -0.01927 0.00120369 0.0215236 -0.0198749 0.00104445 
-0.0214893 -0.0188937 0.00204728 -0.0201399 -0.0187328 0.00231102 -0.0193471 -0.0196716 0.00130911 
-0.0175691 -0.0191046 0.00135608 -0.0162435 -0.0190066 0.00151655 -0.0133657 -0.0190797 0.00204577 
-0.00971177 -0.0182401 0.00236007 -0.00755374 -0.0178791 0.0022845 -0.00130618 -0.0190613 0.00293199 
0.00669979 -0.0192099 0.0025976 0.0094435 -0.0194632 0.00176659 0.0114782 -0.0194538 0.00132507 
0.013256 -0.0180977 0.000954017 0.0146982 -0.018834 0.00104134 0.0165905 -0.019051 0.000953911 
0.0176299 -0.0193377 0.00101639 -0.0188376 -0.0186871 0.00169831 -0.0141867 -0.018605 0.00115176 
-0.0114206 -0.0174442 0.000963253 -0.00875842 -0.0176754 0.00228256 -0.00631921 -0.0179224 0.00218546 
-0.00540282 -0.0172985 0.00221182 -0.00387989 -0.0180144 0.0025757 0.0013878 -0.0174248 0.00187371 
0.00291973 -0.0181511 0.00286918 0.00408682 -0.0178001 0.00270607 0.0051704 -0.0178885 0.00259378 
0.0078664 -0.0182638 0.00152066 0.00887304 -0.0184111 0.00201868 0.00995646 -0.0184514 0.00277376 
0.0117391 -0.0178819 0.00246952 0.0141749 -0.0172322 0.000969251 0.0178198 -0.0182445 0.00143045 
0.0189761 -0.0177625 0.00099629 0.020422 -0.0180683 0.00153277 -0.0229353 -0.0178088 0.00243921 
-0.0218017 -0.0177038 0.00259838 -0.0208644 -0.0176202 0.00197167 -0.0197016 -0.0176753 0.000954226 
-0.0164534 -0.0175302 0.00107934 -0.0154494 -0.0179167 0.00128912 -0.0147368 -0.0171381 0.00180848 
-0.0137946 -0.0176465 0.00192051 -0.010236 -0.0172823 0.0011501 -0.00958038 -0.01663 0.0020085 
-0.00723362 -0.0168209 0.00179274 -0.00432115 -0.0167817 0.00188655 0.00398612 -0.0168285 0.00150393 
0.00562958 -0.0171903 0.00149031 0.00935771 -0.0174776 0.00150069 0.0109635 -0.0181684 0.00132479 
0.0168296 -0.017513 0.00106401 0.0179394 -0.017158 0.00111081 -0.0235263 -0.0170151 0.00312482 
-0.0221879 -0.0165591 0.00274724 -0.0211319 -0.0165446 0.00221361 -0.0196449 -0.0163365 0.00126274 
-0.0180373 -0.0171176 0.000984174 -0.0152368 -0.016719 0.000968102 -0.0134312 -0.0163957 0.00159836 
-0.0122732 -0.0169808 0.0015919 -0.0114261 -0.0161886 0.00105993 -0.0081406 -0.0160657 0.00173027 
-0.0027494 -0.0168893 0.00248445 0.000750442 -0.0168225 0.00261955 0.0027854 -0.0167907 0.00168687 
[...]
POINT_DATA 17850
FIELD FieldData 6
id 1 17850 int
15484 6810 9851 14639 8422 6475 10246 4035 17546 
13465 10765 7438 6706 9558 11476 11696 8861 11031 
17210 9984 6511 742 16149 2461 11589 14942 11445 
17380 38 2208 16901 14503 17412 6689 15640 2290 
6357 4548 12182 6941 15572 2732 6380 1869 4820 
10033 641 6966 17340 1177 15636 2887 12647 1528 
7832 11755 2444 4556 5854 6728 8368 16555 11918 
14654 15299 16997 6875 531 10287 17627 8084 12680 
5452 748 5798 11104 6892 10664 11921 2530 17169 
15338 4698 8833 10438 1984 15164 2052 5042 8642 
11277 6294 140 17056 16862 16579 11376 3469 13885 
827 17330 12128 2995 7769 3853 972 17 14932 
5812 10059 6673 17488 17041 1638 11407 17460 4468 
2714 6736 2831 6634 12430 17769 15157 6212 5785 
592 9956 5668 13396 3063 3477 4457 9204 17790 
15520 8712 3688 17514 10929 10780 11157 16292 4521 
11100 12609 6910 605 11570 14245 15060 15874 13410 
14462 15077 6589 15828 6215 12559 14173 17402 2425 
12863 11249 16400 17698 15707 16781 17286 16077 5265 
10463 16924 775 11084 8844 8989 11497 2827 9109 
11126 15489 17251 1736 14117 3724 12083 3449 12940 
10876 4405 7401 6487 6456 16965 17803 11891 6593 
16699 6177 9217 4363 2097 11674 10744 11808 7503 
10568 8003 1741 12435 2060 7439 6842 4163 1500 
10551 1782 6249 1673 11075 10532 11640 16772 3964 
15526 13316 1455 3317 1147 8011 6244 2837 1321 
7246 13176 279 12219 15652 3177 6328 13225 12628 
4358 3590 16956 8730 2759 10050 16132 1639 14767 
4690 12555 6076 14169 12199 8854 15698 8170 15551 
10618 16192 17464 9971 6939 8488 8536 3747 11366 
3566 16760 10622 5162 14036 12823 1751 297 15845 
7692 8664 13821 8020 13817 11516 2474 5221 4154 
9253 16834 1808 13481 16969 4057 7978 749 3480 
4196 9692 17379 13667 15582 15279 17353 11972 17611 
4812 7429 6764 3326 14155 4432 9501 15598 7015 
15160 1434 1725 12129 143 17315 17377 13529 14224 
9490 975 16059 6050 13017 11204 14543 699 506 
1708 8230 14389 191 12179 9103 37 12110 10368 
12563 2202 1746 12724 6392 65 3576 10374 4355 
6530 16687 10677 117 5453 9810 14667 3999 11042 
15474 16346 850 14848 4033 1101 6535 12880 16347 
14835 9510 4785 16925 7973 16410 17164 2218 8571 
8502 2943 14730 9113 15268 5365 8793 15231 5197 
9485 4414 1950 685 8302 17717 2068 14088 5952 
16329 4562 9221 14388 5412 12034 3514 7145 16790 
5941 6639 5363 6297 2457 15657 12653 651 13901 
12112 4550 8223 9861 5700 10029 10093 14894 17104 
11041 10345 13437 2782 15933 3012 6341 9626 2428 
1990 5222 4880 1268 1783 13966 2403 13715 12 
17725 16245 1078 797 6291 10592 14223 7045 8155 
17266 13122 2270 16022 16114 9100 15786 1647 14171 
6071 2367 5544 5037 14578 16941 15490 16895 6074 
5656 5243 6172 8764 17355 11777 17399 4308 17791 
11184 777 9029 4816 12942 3767 6267 7220 16606 
11612 12109 265 17161 5179 3583 8828 13657 460 
6145 1408 6264 6669 7633 3484 12037 2915 444 
11539 6431 8210 2336 11784 1051 4024 12963 245 
17039 5433 11901 14436 8777 7104 6279 8253 16445 
727 16109 16456 1297 377 15405 16105 8073 13678 
12097 13893 5671 640 10509 10802 2780 10681 17815 
13051 11333 5310 12293 14326 12497 15977 13544 13604 
2665 4728 14897 6317 11953 12631 106 16154 4091 
15224 17438 17184 234 8312 15561 15812 721 16673 
12878 16642 8060 3594 10553 15171 11957 5559 16972 
7307 10903 821 6919 14431 7480 2479 11840 805 
12611 15780 4253 17601 537 937 8441 14093 14479 
12870 9745 5650 9324 7913 8261 10771 11581 8013 
8284 5832 8198 1182 8645 1122 7985 8252 5306 
10249 1087 14413 14764 11364 11699 7214 5615 7966 
11235 17520 4302 9651 335 14615 12493 6815 9089 
1040 17030 16906 10394 6333 8124 4700 15029 17800 
17678 7907 9016 647 6158 8603 9300 12201 10584 
3204 9543 9647 16498 13494 17677 9534 12412 14203 
8340 8782 11695 5936 15884 13200 4611 6233 498 
9129 7124 10965 585 8845 15976 16430 7154 10773 
3593 8717 12791 12057 8107 1468 15615 6923 926 
1525 1898 10641 10778 9063 7469 1853 1077 9377 
1279 7136 15084 9841 11395 14249 4287 7790 5967 
3170 8774 3467 17756 3194 4595 16318 5485 9614 
3712 14830 8593 2642 5177 3304 17563 987 1627 
5748 17167 3381 11664 15802 8832 6846 17755 1722 
16477 6979 1235 16362 557 17091 8701 8500 14054 
2817 12568 4337 9179 15726 9286 14664 4676 9933 
9731 13097 13076 9149 4973 4 657 6506 3941 
2729 7396 5931 17073 10077 1402 10289 16874 9136 
2856 6547 5415 5910 14926 5299 14457 2800 15842 
12363 15053 6882 8390 10915 17258 3472 3238 12318 
3862 1111 10612 7746 17543 4237 9944 4007 5841 
4888 7936 10244 4636 9575 9414 3871 17631 10172 
17004 7663 5937 15688 13014 17465 12006 11430 14380 
17202 6501 15745 5537 13956 15080 89 11132 9472 
11115 3736 10736 8935 4018 13518 13475 7740 13230 
16688 2039 15938 9408 3231 7036 7233 696 4339 
7323 15180 3765 15173 17180 2977 4056 3127 3086 
13173 9139 11294 2968 14532 15023 12255 11804 3299 
10577 1002 13213 6316 6045 7615 5218 3370 8001 
3229 986 6867 3738 6536 13861 10039 11378 16977 
2272 8668 8863 9593 1941 11282 13026 17773 2102 
17374 9634 9508 4632 11365 4181 6807 17339 11074 
13827 3865 10176 9002 3348 10613 9856 13184 12384 
6611 2258 14478 13700 14233 3448 33 5076 16630 
8557 15475 10173 6127 11189 6654 15748 17058 10966 
7143 16993 15201 6775 10234 17580 14825 12487 10227 
15605 5549 12100 2778 10332 2680 9959 1303 8534 
12970 235 3794 1031 12015 9118 6790 1257 15790 
2013 1977 3403 93 15472 3439 7669 12312 1053 
16304 17439 12479 9697 6568 16375 4756 14628 2415 
2486 7355 15564 3095 8975 3356 13284 5738 11924 
13480 16341 15868 10917 4952 1550 1631 7417 8012 
13854 4518 658 2481 17504 12266 15119 13872 2755 
15889 15263 9431 16408 15806 14695 5836 12820 6400 
8559 9953 9033 3400 14554 6413 8167 15090 7607 
11199 5547 4855 5087 10722 5548 5766 9220 17764 
16718 13037 3269 2330 5404 14343 13762 16666 3070 
356 8486 5797 4142 571 12054 7209 14871 10017 
4317 1496 14973 5669 14010 15026 15534 14719 9712 
9591 7200 10052 5367 15830 534 10980 2873 1686 
16517 3279 6540 10907 5030 2494 6381 16197 11557 
8524 2843 3078 15507 3165 7278 896 9337 11659 
16299 13551 7802 4616 5071 14996 10217 7390 11311 
1319 7950 12690 17466 192 10631 3905 4395 2122 
11523 3749 17265 8742 12678 1603 6768 9663 3275 
7017 13990 5167 6353 12930 2593 12589 12601 12655 
3089 2242 14678 6681 11611 11920 2436 14731 12203 
6686 2578 239 15372 6502 786 7697 554 10199 
476 17082 764 2701 6679 7500 12209 14587 8981 
7968 7909 15240 2003 11088 13690 1052 4846 8804 
3611 5153 11633 15308 9487 3443 629 6765 9147 
6583 7801 15655 9025 10635 12079 3062 4177 15071 
3331 10502 11491 9540 9112 16954 7695 13521 1450 
7346 15633 5471 964 14691 13406 6970 7531 7677 
7205 1709 7729 213 6204 11766 8926 13127 3629 
7824 17242 446 11039 17068 13522 11815 12855 8409 
14953 8278 5689 9732 5719 13279 271 15587 15803 
1001 14874 8806 13061 6606 13725 15837 14438 5010 
4651 13082 2480 9095 14105 4579 4400 3555 11303 
722 16869 3111 393 9609 6743 17812 4569 4865 
9606 13610 11609 1906 12002 6376 12943 15249 16166 
7277 8994 16724 9938 11829 9662 11013 4419 5255 
2193 5297 9165 12067 17254 6620 6029 14552 9212 
7741 5571 1824 11038 13169 11854 9262 4248 14705 
15787 4065 6920 15742 15644 13138 14613 13815 9059 
334 9255 3287 9738 9629 1451 3016 12956 1594 
11843 13549 1784 7176 15211 7405 6192 8149 16648 
14555 3493 11381 7356 1964 1900 5563 15751 17528 
3730 14600 1681 2399 3956 14179 12610 17293 7964 
16402 1787 4669 13002 7005 2763 9143 11679 2893 
6355 11682 214 4376 12135 2555 11770 2610 9238 
16174 731 4387 8218 11393 2117 6173 17327 3268 
5098 8499 16323 7135 2001 3639 5976 13492 6140 
12687 10786 400 10719 9728 3515 12968 12247 700 
343 2126 1488 806 7331 15048 3068 5205 7033 
6123 5121 12436 4193 10417 15 11429 9824 1532 
2931 16738 3926 7751 7527 1251 9840 15298 13965 
8028 7498 1000 5175 9725 3414 216 15061 2550 
9987 11484 11982 3104 1676 9328 4505 17071 8301 
9040 17541 16546 11749 2742 625 8051 13234 10302 
9054 5641 12788 418 5246 1566 7259 12796 6747 
11450 5407 11818 16151 12271 9950 785 2074 11552 
466 12458 5492 3099 14482 14360 13980 13472 10727 
13249 4893 3309 10888 500 3453 9122 2026 9135 
15706 14006 7535 2781 8568 16620 11693 1695 672 
2786 2379 14264 13785 9091 6586 9117 3672 12747 
17545 4677 2936 15203 13066 8766 11353 10673 15189 
7239 17847 15473 4523 1909 5542 5001 17357 376 
15421 11174 12394 14487 2483 12026 7823 7625 11740 
15141 3338 9087 4705 9073 12170 3929 1666 8157 
1780 14199 10556 11290 7206 4557 16103 14865 970 
13270 11480 13971 6159 2526 12532 12012 6667 3492 
5405 2225 16697 16823 14511 6847 16257 11424 17014 
15556 1943 5355 12045 13727 14718 2549 15251 17448 
17669 6829 79 10286 6393 5622 16742 17610 4974 
10376 16775 12144 2104 9102 8624 102 1222 17247 
14184 123 16325 1438 9842 9180 13231 1739 16958 
151 14358 10423 8787 350 403 4474 3858 3369 
7735 1872 3139 13146 1129 10924 16583 15034 17291 
17840 5752 14673 9665 11987 15348 13252 5574 10891 
15150 14883 2924 10498 4685 1814 10190 6588 10355 
4540 9518 16567 16973 496 16463 5386 13139 6085 
243 1527 4510 7437 3106 17138 4874 379 15404 
1811 8272 10068 2513 13572 4850 13194 12447 2267 
4588 2939 14757 16968 6206 6378 15989 5007 16570 
11270 8807 7392 1680 14305 2383 15945 2259 8995 
15732 15961 7862 9314 6837 835 2723 6767 12581 
17211 2500 886 13900 13863 16594 16732 16322 5505 
3975 4661 7298 9430 2852 6444 6386 472 10062 
11315 14453 13652 573 13787 8814 14606 10642 5845 
11956 10381 9371 14564 9426 10248 9257 7670 861 
7481 7321 3463 4465 12554 6836 3049 17280 4128 
13672 9724 6155 10058 15730 11262 2734 884 13924 
5317 5801 13859 1344 6072 11148 13174 16707 8654 
5638 14781 10959 3623 17313 15547 9906 14955 4079 
17083 6107 3109 10078 1327 11354 8516 3091 4612 
14839 13374 2669 12681 7810 17025 12851 12376 13032 
14956 6406 13683 10019 12009 4402 13835 11269 3637 
1786 6915 1854 9353 8152 13713 15907 776 14017 
1395 16442 10975 10831 17108 14481 3253 1120 11106 
2702 10392 17134 16129 8520 7595 15355 17508 1361 
2711 5105 6231 8479 9628 1018 522 8783 11151 
1694 8859 16196 13660 10699 11338 12056 4303 1770 
671 13997 645 9889 17679 9481 10610 10721 1915 
9743 10069 16626 9318 3950 10883 8729 5810 1991 
1229 17608 11122 11870 15704 8663 16907 11466 13629 
12075 8140 8855 5607 3497 12735 2021 7088 17647 
2810 17471 11859 16933 9625 8212 11330 6196 11256 
4454 4076 11460 12099 14096 11792 4927 9769 12314 
3863 13702 15344 9607 4877 13509 942 14523 2554 
17121 16397 1038 10707 16952 3320 10990 176 5623 
5349 12777 99 12187 8250 1080 13463 17332 10458 
7444 1605 3992 3839 10329 13946 15043 14967 5139 
6523 17022 14372 14485 1420 12282 5038 17320 4670 
9148 4312 1572 1506 12232 5024 5176 15755 15962 
12455 3602 8221 12195 14618 10614 8362 17292 3110 
3462 6345 9405 9480 12626 4665 8553 9963 7051 
11087 2750 13049 3335 1248 15822 15915 8644 4530 
3065 3591 12098 17148 346 878 17369 13 11357 
7836 17817 14278 14846 7087 15432 2624 17544 6861 
10821 17634 12576 13072 14060 13634 16581 3235 3277 
1888 2839 9137 2376 6805 6685 8401 12154 14895 
8118 5504 15959 13447 5248 1830 8889 16212 12244 
7196 7886 6869 1887 362 13020 5713 8657 14806 
6194 3437 2870 11604 11941 11730 3 2335 4681 
10704 12452 5057 11319 11736 15200 15307 373 11325 
10865 9218 17493 9894 16617 11871 12270 10956 1633 
9511 8175 7784 905 10539 17603 8241 11289 15081 
17066 3949 646 13569 16785 13359 16955 17501 3816 
10760 5988 2861 14165 7761 13963 13054 16751 3835 
10352 14297 141 17222 12981 5532 9329 11734 10863 
17078 3717 16892 1138 9584 15198 1803 10357 15680 
8427 4955 5530 7903 15297 5691 12737 10788 3123 
7789 16770 1112 3505 10000 9879 15192 16016 15592 
4070 4933 5050 4913 17645 17618 11537 11862 13819 
13637 15154 2926 16264 9001 1494 8525 9898 732 
6164 10467 9645 10792 2426 5859 5579 10581 9860 
7710 10403 16291 9031 17788 17289 6811 232 9036 
4218 14449 10328 3985 14507 7052 11034 4765 4254 
16019 12141 16287 8856 11287 13363 6098 8532 5069 
5440 10527 14976 9717 885 1472 13571 17529 3358 
744 15552 7573 3655 6695 5753 913 2826 16121 
7603 12063 16746 1449 7797 16119 9366 1328 12334 
5567 2898 9252 3085 14534 16451 15509 4747 11313 
5099 11776 6603 16086 353 11884 11583 5655 11520 
13038 3666 9011 11952 2422 11865 13214 6931 1203 
1399 10013 8040 3076 6590 2927 2590 13441 17225 
2177 15769 10933 15217 16350 17512 6711 276 9757 
9985 11985 7693 3180 6818 14699 1620 13164 8322 
6570 9453 1267 1054 13266 4467 11635 4990 178 
1907 5611 1280 16152 8709 7952 7757 6578 6656 
4577 14733 5870 11757 11524 16481 3539 10775 4262 
17126 7972 624 10213 7358 15594 15696 4187 960 
6862 17109 341 12419 15816 12980 2263 15618 4407 
12472 16922 8433 4046 15166 4396 5219 8473 17064 
5882 4437 4922 10543 13289 2845 8542 9937 14935 
11060 3894 13085 15350 15383 17324 6801 9335 1209 
14889 6184 11578 9367 6897 2268 1719 10372 16520 
17351 10659 4861 12805 15417 8287 3327 16497 8204 
6022 4599 451 14396 15947 17008 2761 9737 16536 
4755 2 1954 7155 2014 7970 6109 9939 3073 
3633 10257 15894 8113 10770 15017 11798 4061 15781 
16034 122 2369 12740 830 14785 7753 7905 3793 
3119 11598 15513 3225 3053 16276 14458 4986 5450 
17650 94 9053 5918 2166 6974 15685 15531 13140 
6643 16288 15191 14574 15219 8690 12689 3533 3734 
931 11876 14361 11419 10218 12901 15328 368 11733 
8874 7540 4286 12944 9374 10949 7381 2264 1522 
13220 12358 10640 701 13496 13880 13227 1988 6633 
4710 12965 108 9057 10152 1296 11712 14246 1618 
12686 13899 7149 2803 598 87 16848 17197 14387 
10606 12484 10563 16792 1241 13537 12701 8112 13167 
503 1896 4158 5271 7445 7304 17306 3607 4249 
9833 3877 3545 15740 7509 4202 4925 16600 231 
10623 4081 7362 1514 3392 16903 14401 6691 1374 
3864 8528 16928 15847 389 2496 6569 17018 5461 
1865 5922 2175 6534 12231 15330 3167 1519 13836 
14349 9214 10520 13223 3010 5971 17294 5871 17072 
15956 16345 14350 11737 8547 9678 7062 14697 14465 
13237 3359 16515 5389 7279 1692 13404 15689 5502 
4256 3970 5012 10850 10210 11467 7993 16127 4349 
1952 6537 9235 11073 14859 953 1509 11895 13382 
13860 10794 5730 11443 5241 7986 12258 6322 12808 
14318 9457 11107 7425 6754 10999 9905 10005 10469 
14362 7350 12088 14659 17442 8332 11032 9065 13771 
13669 7902 198 4334 15151 12524 8896 3673 13084 
1835 1207 9237 7280 3621 1017 9266 2080 662 
6785 10150 5863 4590 13149 4483 11155 12864 6124 
3404 14804 13021 663 2561 3632 15044 10495 17259 
14944 14961 5496 12417 10115 13048 11182 6358 7787 
10491 4797 3872 15259 11162 7060 15147 5512 1744 
14219 14364 9630 13395 14467 17736 1437 70 1834 
14741 17273 15621 8 344 10056 509 3098 1949 
6404 8968 9903 3193 10189 16769 14850 15920 5220 
17597 11960 6564 6870 9736 12173 1312 16285 2167 
17181 889 13514 9425 13343 4488 363 4008 1275 
1406 274 11170 578 9392 17407 7113 10835 5606 
14774 5411 5312 7384 8636 14657 16206 3234 9463 
10535 5488 154 16764 1767 8838 8566 2804 1291 
5252 16836 7128 2183 4261 6688 1918 4244 3707 
15869 7447 13618 3496 8122 6117 10989 846 17079 
6635 9548 17135 7736 11138 3075 4778 8601 9874 
9683 5647 1979 6828 5715 917 5169 6211 12374 
4466 1260 17143 11119 6791 17452 2320 4733 1696 
16990 15045 5515 12072 11448 6290 16314 16499 8491 
4184 10534 5161 12147 11584 1543 962 1397 13245 
3597 1194 4167 3444 15679 12315 4566 10685 5242 
12765 2374 13876 16878 3011 15492 6248 6854 12408 
2488 8439 10880 3651 1606 10862 7699 8026 14286 
8478 11360 10536 3755 14717 4352 6251 3047 14817 
15903 16447 6735 6795 5480 142 5051 12022 9354 
15505 4208 10692 10233 6794 15016 5143 10168 11239 
5465 10418 2446 4873 16634 13883 1928 17842 9236 
1721 11187 2101 8213 4491 1607 2473 13687 12758 
13598 6270 12208 366 4000 1164 9960 9347 15538 
7488 7632 11809 1648 11927 7014 7683 16856 974 
4366 14974 9924 12869 15207 8704 4429 17368 6817 
1368 7446 9631 12573 52 6304 5484 59 96 
7354 10660 13791 16533 13193 16872 13018 20 219 
1667 13324 14392 4507 2942 15398 7295 7508 7988 
2355 3713 6006 8331 2083 4754 13067 6727 5168 
31 13805 47 14384 2744 5519 2497 3524 5015 
118 8378 8494 6839 527 9014 7218 6325 1093 
4160 3570 2546 17692 7257 2920 16539 1765 12226 
4109 11672 9604 14838 2835 15654 16226 8178 9553 
12738 13357 2431 10777 994 147 2988 10549 5712 
7271 5284 15935 15563 3876 14476 16258 16172 9875 
13013 1553 1554 1462 9412 3285 15980 15944 2396 
3270 11898 15088 8336 16108 5055 4270 17408 9076 
10410 8558 3748 7181 2133 242 9232 14539 17212 
14153 10230 15334 10102 15700 13950 17433 6195 17253 
13975 6900 13365 2958 6566 1860 14046 5679 5186 
156 11814 14950 10 6700 2094 13528 15098 2265 
4371 6944 13330 360 9284 15846 12698 15126 8296 
9229 13868 9754 14551 11720 1711 16457 9868 2944 
111 16357 4581 15963 15930 14878 807 17513 5486 
14049 15270 12896 8133 9440 17392 6894 7112 4671 
6120 707 12421 10416 8647 2176 9656 12881 4042 
9994 14323 16319 6309 4066 6405 550 6797 2838 
6321 14546 14920 17021 9064 4730 3251 5847 8266 
12137 9809 16293 9654 6465 16623 11431 7592 2316 
14768 1392 3458 16204 202 7253 13912 11914 4406 
10441 7650 101 16414 1403 7451 6241 15737 630 
16791 17686 11229 13388 11874 13043 4644 5977 508 
7882 9857 4989 9037 14257 5799 7139 4077 11485 
16825 9261 10974 3933 8999 15267 13286 15373 16671 
8185 7543 4948 1204 17640 10931 10829 15092 14082 
10264 2293 5795 5925 11864 4502 2743 15595 8313 
2130 8005 932 9495 11945 15317 15325 8290 8872 
8251 2416 13961 7684 9735 10501 9467 16763 8211 
6478 17710 12277 2626 17843 8460 10106 5875 4823 
11778 1443 13493 6062 4487 8631 868 17075 8821 
3943 2409 10140 15982 4711 2099 8963 8320 14670 
15835 1520 6202 7811 2806 5138 4649 9526 16588 
5508 168 15015 5294 11186 17394 11955 421 4174 
8406 3001 5383 16279 3201 15175 13586 933 6275 
17113 7157 10398 14885 14831 11645 11152 14440 10434 
12443 15544 14592 9881 160 7777 6198 4089 7371 
3409 11030 9904 717 2382 10987 5736 12625 8797 
6560 14519 2227 6899 9479 13741 11433 13429 16380 
2632 10344 1937 3753 9684 5609 6961 162 1855 
613 7097 2929 667 11861 13107 5868 10365 17309 
5919 2992 5503 13779 10095 7456 6878 9468 13926 
3157 5152 11545 17205 6710 14032 6783 10453 2460 
4382 950 13408 15969 16679 2522 17139 2205 10497 
16035 9116 17226 15927 2269 16719 5843 16802 10351 
1340 9494 17423 5772 2991 17274 4063 1510 4807 
10254 9195 15132 16855 13075 8146 10982 10273 8450 
15234 11191 17146 16343 1192 12541 3485 6179 14924 
8681 4320 3240 10377 13890 17069 7282 1503 11660 
6235 15624 8384 6052 3174 13134 11636 6563 5705 
10528 2255 1175 15575 15739 312 3557 3006 14504 
15750 6517 9661 7995 6784 11836 11231 10864 4266 
3922 17006 2531 10596 11196 3517 11803 10127 4575 
12604 11548 710 12537 13757 6826 5136 1817 16098 
12743 10913 11418 883 4445 16133 357 17811 14147 
13806 134 10667 10023 14185 4071 3550 13091 13141 
6118 15464 14985 6247 5580 3758 10178 7021 5568 
11339 4625 13626 1311 16213 10486 12014 5987 2424 
3446 16352 9507 6935 10277 9332 5565 838 12635 
9151 5426 3378 4849 17031 4086 1796 7302 12165 
16741 75 11056 6515 12786 10306 16418 16904 17784 
5129 8205 9342 9032 4770 14879 8110 1652 1820 
10228 10918 11856 16845 16374 4895 7984 13986 4828 
10764 2896 11531 10027 2360 5630 12795 4553 14558 
2260 1776 14887 6391 11163 9806 4250 14066 15586 
2197 4818 2641 15197 4309 15818 6271 10311 2881 
15411 10474 16661 6723 6420 856 12050 7892 4131 
8735 16467 3548 17591 17124 7725 15433 259 11758 
4325 13128 8531 2528 11961 7039 9017 8579 13338 
9244 16937 1371 3705 15946 9675 2603 6780 4799 
6646 15255 12834 433 12085 17816 13830 5572 2974 
16359 17726 17404 17704 9256 956 11587 187 10725 
8826 14900 6740 11335 1549 6527 6082 12859 7749 
5293 16032 6059 13839 6932 13952 9829 13728 1301 
7860 10695 4924 3953 2222 14970 8006 14080 7620 
17609 12030 3389 2138 15245 15174 4111 6980 11268 
11991 1172 6246 1580 6150 2635 8574 17628 4428 
502 1188 11217 6701 7927 16231 10550 8015 5840 
910 983 9900 17434 10159 3209 8303 2922 15897 
15866 1807 10462 23 17070 13759 9418 10148 3542 
6705 3525 10855 13583 9892 4451 8326 13148 16900 
15794 8195 1318 14131 10294 7080 15870 11385 15046 
16082 7232 13837 7874 12413 16321 3944 6417 1314 
8831 15635 11082 5754 7012 11331 14494 8295 1734 
7661 6176 8188 9521 5929 2672 4882 2910 16092 
12290 12620 4399 7393 5283 9581 11206 12306 7110 