# vtk DataFile Version 5.1
Generated by LIGGGHTS
ASCII
DATASET POLYDATA
POINTS 17850 float
0.00082072 -0.0291256 0.00235191 0.00185154 -0.0280598 0.00263951 0.00412952 -0.0285726 0.00259334 
0.00914588 -0.0278165 0.0016947 0.00954864 -0.02675 0.00198595 0.000302338 -0.0272981 0.00246464 
0.00292916 -0.0282105 0.00245976 0.00614099 -0.0276252 0.00216247 0.00191334 -0.0256078 0.0021723 
0.00391591 -0.0268464 0.00293681 0.00521255 -0.026641 0.00256055 0.00823026 -0.0263391 0.0020603 
-0.000632905 -0.0250822 0.00190737 0.00329836 -0.0259207 0.00264736 0.0044455 -0.0258757 0.00237522 
0.00676984 -0.0260607 0.00251038 -0.0150279 -0.0251801 0.00200519 0.00580648 -0.0250667 0.0027971 
0.00171909 -0.0243291 0.00254128 0.00394702 -0.0242671 0.00274521 0.00669283 -0.0245519 0.00232357 
-0.0178977 -0.0232234 0.00204794 -0.015253 -0.0235497 0.0016546 -0.0135259 -0.0231465 0.00167031 
0.00166954 -0.0228726 0.00249215 0.00331044 -0.0233652 0.00256528 -0.0169692 -0.0222362 0.00190174 
-0.00122679 -0.0214601 0.00186887 0.00173713 -0.02151 0.00254995 -0.0197555 -0.0216928 0.00213764 
-0.0154755 -0.0214088 0.00230043 0.000962422 -0.0207208 0.00201989 0.0051401 -0.0218422 0.00187509 
0.00821972 -0.021484 0.00194184 -0.0175486 -0.0210491 0.0019272 -0.0117024 -0.0218921 0.00137384 
0.00265267 -0.0204348 0.00212882 0.00844643 -0.020428 0.00215014 -0.0199815 -0.0198212 0.00188817 
-0.0171893 -0.0202758 0.00269323 -0.0161189 -0.0202973 0.00253623 -0.0139391 -0.0196856 0.00180629 
0.00586252 -0.0202668 0.00218835 0.00727364 -0.0187941 0.00184178 -0.0119188 -0.0198555 0.00184868 
-0.0015305 -0.0188958 0.00145475 0.000631934 -0.0183313 0.00178557 0.0087971 -0.019367 0.00220974 
-0.017678 -0.0193514 0.00233113 -0.0163775 -0.0191211 0.00249207 -0.0153303 -0.0188468 0.00222904 
-0.0134005 -0.0172505 0.00215218 0.000348539 -0.0166841 0.00207097 0.00373825 -0.0180638 0.00163841 
0.00625044 -0.0179415 0.00291129 -0.0161879 -0.0180477 0.0020519 -0.00939784 -0.0178496 0.0018468 
-0.00804489 -0.0176957 0.00160523 -0.00524646 -0.0179357 0.00176086 0.00482926 -0.0180569 0.00237644 
0.00722483 -0.0175815 0.00189333 0.00970475 -0.0173906 0.00168809 0.011489 -0.0182327 0.00195179 
-0.0146119 -0.0170347 0.00205096 -0.0107931 -0.0174921 0.00215385 0.00562399 -0.0171597 0.00249883 
0.00672143 -0.0161643 0.0019585 0.00799582 -0.0166349 0.00198009 0.0105746 -0.0166744 0.00197931 
-0.0142255 -0.015822 0.00196064 -0.00983897 -0.0167341 0.00217031 0.00786004 -0.015451 0.00168905 
0.0147095 -0.0161173 0.00246471 -0.012977 -0.0155937 0.00182656 -0.0107539 -0.0157238 0.00251816 
0.00102082 -0.0133757 0.00274622 0.00606502 -0.0148053 0.00189006 0.0105031 -0.0154194 0.0016198 
-0.00592324 -0.014593 0.00239427 0.00208611 -0.0137609 0.00363157 0.010031 -0.014379 0.00155352 
-0.0126194 -0.0129406 0.00126902 0.0084337 -0.0137718 0.00209483 -0.0106779 -0.0137204 0.00220159 
-0.00130279 -0.0123416 0.00385499 0.00314827 -0.0139059 0.00284436 0.0109696 -0.013685 0.00172414 
0.00958589 -0.0120766 0.00174215 0.00765772 -0.0113288 0.00167306 -0.00856925 -0.0120851 0.00211978 
-0.0103794 -0.0103311 0.00171278 -0.00804212 -0.0108956 0.00214067 0.00769234 -0.0102198 0.00211143 
0.00716185 -0.00834488 0.00189372 -0.0279297 -0.00913443 0.00222586 -0.00509809 -0.00912936 0.0015577 
-0.00112627 -0.00938484 0.00425155 0.00440366 -0.00743985 0.00308039 -0.0269396 -0.00775428 0.00296358 
-0.00554052 -0.00759034 0.00175786 -0.0284464 -0.00721245 0.00283116 -0.0273255 -0.00671731 0.00291954 
-0.0244086 -0.00792477 0.00275997 -0.0228931 -0.00871242 0.00232477 0.00674161 -0.00609428 0.00223858 
0.00974987 -0.00645888 0.00170212 -0.0251212 -0.00615315 0.00285751 -0.024101 -0.00683372 0.00289751 
-0.0285366 -0.00600583 0.00291952 -0.0269539 -0.00555618 0.00339447 -0.0235936 -0.00509949 0.00316665 
-0.0228206 -0.0068888 0.00247957 -0.0212024 -0.00560138 0.00263911 0.00672735 -0.00486918 0.00232949 
-0.0288142 -0.00451901 0.00264941 -0.0275258 -0.00285031 0.00287422 -0.0262029 -0.00479247 0.00324735 
-0.0249059 -0.00501231 0.00272896 -0.0225684 -0.00555461 0.00276277 0.0286617 -0.0046983 0.00240139 
-0.0257916 -0.00372472 0.00311312 -0.0222582 -0.00279938 0.00264527 -0.0206805 -0.00359771 0.00249497 
-0.00436306 -0.00457506 0.001772 -0.00419264 -0.00341013 0.00135691 0.0282774 -0.00323024 0.00204559 
-0.0291127 -0.00330766 0.00301182 -0.02675 -0.00184852 0.00316621 -0.0241637 -0.00335071 0.00254351 
-0.0233328 -0.00263693 0.00283222 -0.0195476 -0.003457 0.00207001 0.00762966 -0.00349803 0.00157627 
0.0102419 -0.00249201 0.00177712 0.027089 -0.0027842 0.00216098 -0.0293708 -0.00189977 0.00321828 
-0.0278711 -0.0014404 0.00314085 -0.0247986 -0.00169246 0.00299309 -0.0241064 -0.000814854 0.00320485 
-0.0213808 -0.00213512 0.00283609 0.0130961 -0.00209809 0.00190621 0.026129 -0.00207088 0.00217242 
-0.0290326 0.000455831 0.002815 -0.02767 -0.000202344 0.00312178 -0.0251937 -0.000557716 0.00304881 
-0.0233394 -0.00168973 0.00334354 -0.0203197 -0.00143597 0.00291186 -0.019415 -0.000826059 0.00237192 
-0.00275166 -0.00179284 0.00159556 0.00764525 -0.000276077 0.00150061 0.0289048 -0.00134642 0.00223925 
-0.0264849 2.91906e-05 0.00301001 -0.0232647 2.87064e-05 0.00288171 -0.0218738 0.00035287 0.00296691 
-0.0182412 -0.0007184 0.00251149 -0.00292237 0.000128119 0.00151645 0.0123299 -0.0009111 0.00172635 
0.0248716 -0.000509886 0.00238076 0.0261078 0.000134221 0.00252912 -0.0269914 0.00100441 0.00277818 
-0.0251 0.000790916 0.00328303 -0.0214676 0.00110387 0.00378341 -0.0204194 -0.000320135 0.00300044 
-0.017636 0.000982379 0.0027201 -0.00210755 -0.000575617 0.00236989 0.00692013 0.000407866 0.00201352 
0.0233623 0.00095955 0.00164619 0.0248276 0.000595114 0.00227665 -0.0266463 0.0021902 0.0033339 
-0.0253771 0.00222091 0.00314214 -0.0237022 0.00208553 0.00322988 -0.0200246 0.000852385 0.00289378 
-0.0187213 0.00109748 0.00306108 -0.0165114 0.00139929 0.00266206 -0.0128841 0.00125009 0.00145763 
-0.00220633 0.00102013 0.00186044 0.0109144 0.00122882 0.00200391 0.0119741 0.00169587 0.00157108 
0.0293089 0.00255473 0.00241539 -0.0224319 0.00228507 0.00305908 -0.0212138 0.002052 0.00339287 
-0.0201958 0.002298 0.00313331 -0.0173624 0.00243292 0.00251689 -0.00291466 0.0019715 0.00198448 
0.000646322 0.000131143 0.00222556 0.0252513 0.00158778 0.00200861 0.0282695 0.00288324 0.00198776 
0.0291725 0.00373234 0.00223693 -0.0219716 0.00406825 0.00300814 -0.0214511 0.00308043 0.0031544 
-0.0184629 0.00255416 0.00241996 -0.0174173 0.00376216 0.0029567 -0.0159494 0.0023856 0.00239453 
-0.0146495 0.00256564 0.00256039 -0.0125322 0.00320067 0.00150857 0.0016459 0.00318583 0.00199068 
0.00276201 0.000533479 0.0011472 0.00946833 0.00183006 0.00184632 0.0106466 0.00287192 0.00190112 
0.0153167 0.00314945 0.00179288 0.0270846 0.002862 0.00225002 -0.0249903 0.00399952 0.0031233 
-0.0204659 0.00341358 0.00312851 -0.0194135 0.00314879 0.00314136 -0.0186997 0.00401764 0.00290051 
-0.0122455 0.0042934 0.00170829 -0.00858159 0.00348191 0.00147476 -0.00480076 0.0033383 0.0024079 
-0.000496469 0.00349761 0.00221812 0.000941623 0.00406808 0.00196254 0.0062779 0.00248348 0.00204237 
0.0242334 0.00303783 0.00201276 0.0272784 0.00395956 0.00221877 0.0285505 0.00514631 0.00237998 
-0.0237157 0.00426349 0.00294633 -0.0210291 0.00514631 0.00338735 -0.019903 0.0046403 0.00272965 
-0.0172034 0.00481377 0.00292965 -0.0153927 0.00351609 0.00243187 -0.0106844 0.00415984 0.00214907 
-0.00258113 0.00435845 0.0023776 0.00469428 0.00543805 0.00193239 0.00759595 0.00477898 0.00220578 
-0.022158 0.00553773 0.00323954 -0.019016 0.00679985 0.00284469 -0.0179497 0.00597031 0.00301357 
-0.0163848 0.00547828 0.00258938 -0.015378 0.0046612 0.00290982 -0.0147497 0.00564892 0.00222449 
0.00048342 0.00531676 0.0017323 0.00370523 0.00481896 0.00236904 0.00871723 0.00584188 0.00177599 
0.0257495 0.0057482 0.0017185 -0.0235502 0.00700426 0.0025695 -0.0199467 0.00629826 0.00301546 
-0.0162257 0.00652522 0.00279312 -0.0121758 0.00543909 0.00205189 -0.0102823 0.00558732 0.00165962 
0.00311573 0.00566063 0.00178221 0.010509 0.00507078 0.00185236 -0.0280035 0.00737358 0.00265277 
-0.0214238 0.00655574 0.00332091 -0.0195335 0.00764404 0.00246412 -0.0169533 0.00759822 0.00248381 
-0.0140458 0.00750742 0.00212372 -0.0113249 0.0061294 0.00165409 -0.00365935 0.00649969 0.00175001 
0.00283025 0.00701317 0.00181348 0.0114347 0.00618975 0.00227745 0.0238322 0.00671534 0.00190101 
-0.0250939 0.00802646 0.00315096 -0.0223396 0.00831873 0.00247439 -0.0183118 0.0077508 0.00254481 
-0.0150125 0.00811492 0.00260154 0.00827813 0.00666423 0.00243998 0.0104158 0.00768051 0.00204379 
0.012076 0.00730507 0.00192085 0.0261007 0.00704415 0.00202686 -0.0281264 0.00841161 0.00308508 
-0.0211013 0.00830994 0.00234885 -0.0163275 0.00866911 0.00255653 -0.0112659 0.00915731 0.00168859 
0.0144828 0.00933742 0.002495 -0.0237706 0.00995465 0.00191268 -0.0198665 0.0104286 0.00233626 
-0.0153722 0.00899491 0.00207752 -0.00664184 0.0083968 0.00163633 -0.00531168 0.0091533 0.00196897 
0.00970922 0.00848391 0.00227473 -0.0168812 0.0102371 0.00252901 -0.0103578 0.00982253 0.00175362 
-0.00825037 0.00915834 0.00204816 0.0096356 0.00957135 0.0024006 0.0123322 0.00920975 0.00182938 
0.0263234 0.00920254 0.0022361 -0.0248532 0.011053 0.00180642 -0.0187032 0.0105431 0.00236009 
-0.0151168 0.0126105 0.000772344 -0.0140867 0.0113798 0.00176365 -0.00648126 0.0110504 0.0018341 
0.0071713 0.00992147 0.00195096 0.0217145 0.0107083 0.00284969 0.0278198 0.00919449 0.00229795 
-0.011436 0.0117718 0.0015409 -0.0100702 0.0117135 0.00175845 -0.00837876 0.0107059 0.00194857 
-0.00517369 0.0114035 0.00233506 0.0125327 0.0109716 0.00256491 0.0148437 0.0117518 0.00182338 
0.0166133 0.0104631 0.0025148 0.0272696 0.0107655 0.00212802 -0.016993 0.0122493 0.00173976 
0.0101136 0.0119517 0.0028028 0.0116211 0.011897 0.00262776 0.0134801 0.0121032 0.00240139 
0.0181654 0.0107019 0.00294555 0.0202948 0.0126224 0.00271559 0.0224473 0.0121583 0.00298072 
[...]
POINT_DATA 17850
FIELD FieldData 6
id 1 17850 int
1485 10898 12252 3733 6348 776 5116 5764 11137 
1227 11435 8770 3314 10457 6301 1498 7751 4630 
2797 6106 923 6180 1000 2999 2891 8466 8541 
11803 13772 8131 2894 8400 10020 12518 9253 5355 
10570 4470 2028 17647 3300 15578 8594 10887 5353 
9603 5138 339 16871 9708 627 7862 12226 11976 
12264 6640 9615 4810 11258 6778 7917 15665 12656 
17805 17310 14881 4458 2269 16042 10669 2184 10102 
16108 14662 2265 4775 1141 8000 6317 2354 11572 
16157 17804 8937 12817 678 9339 15663 11329 7908 
2849 7520 606 161 3083 11703 11434 6593 3368 
10539 3028 602 16152 16864 9756 1597 14297 1313 
7710 9140 5013 2683 3121 1238 4296 3900 922 
3313 4102 8341 2102 12008 8577 1133 5290 13903 
308 10172 982 5915 8502 4126 4653 16254 6682 
7016 2594 9289 1325 10760 6471 6007 4171 5963 
840 12233 13471 11972 4178 3572 5060 3235 4772 
7793 6572 4847 16748 15994 8262 1106 5387 9414 
491 17172 586 9306 17484 4726 698 12381 15418 
10214 384 1235 2337 4846 6052 12074 8524 17023 
4131 4765 10971 4407 13552 17157 10349 3277 6161 
10443 10495 2435 13322 15672 17421 11605 12604 12078 
12288 14823 10170 12441 2347 5391 14833 15164 14302 
3529 17632 4272 3329 16912 1218 1020 10865 16435 
17167 3440 8591 1152 15510 13705 2319 6208 198 
11615 7860 14719 764 11618 13191 8434 1926 16995 
16614 7798 9535 9399 15677 11681 9776 5241 8182 
15255 16718 11078 3568 9294 17810 2237 17773 11060 
10799 6440 5739 12996 9650 3361 14065 8623 3678 
13506 4155 3005 11312 9859 6862 17733 9596 5404 
5926 15138 14934 2622 5270 2296 6368 14179 13151 
4818 9657 13132 2271 2146 5334 10350 7755 17801 
7443 3938 11442 14335 13578 17726 15524 15536 12608 
429 5521 17008 15120 12593 9506 1652 8596 6494 
4822 3377 17689 9576 2487 4813 367 10646 14528 
1767 12018 17570 41 8425 11782 14617 7334 16836 
960 16179 10770 10524 12405 17457 12302 4128 10890 
7038 10412 3701 10362 14756 6607 17506 14621 3802 
13530 814 12436 3971 7769 14997 10789 17005 2353 
11924 12243 6611 3004 15163 5273 16786 13059 905 
17585 9471 270 238 4506 10320 1495 13534 17729 
7800 14180 13907 859 4281 10661 5142 5148 9823 
13395 7976 8894 10972 11368 9199 7228 10544 841 
4349 6454 11280 16971 7732 660 11919 10761 10607 
1334 4058 14352 10980 13892 14518 6606 6631 12024 
17697 2187 10704 7687 8112 8125 5818 5155 1464 
2239 5722 5916 7287 10593 7641 3443 10180 9159 
6946 8069 2768 2697 9192 4268 6887 6538 5389 
3312 3574 3386 6647 1615 4230 5773 9180 2251 
5861 5407 4591 1078 4869 11542 511 3468 17092 
4523 666 5161 3579 4037 10477 107 2199 1532 
16151 6566 2782 1354 1307 351 16469 4038 11358 
3395 2300 2201 14661 10715 12755 6869 6149 1316 
4215 8954 17695 12940 16316 12777 9274 14106 637 
5503 5092 2500 5692 13368 1272 14357 2202 9800 
12536 10100 8698 13747 9858 10413 14566 7460 1380 
1462 5097 16778 5368 1478 6907 7385 15311 12332 
14794 7586 14573 13022 12856 12506 5542 16243 3728 
11014 14109 12771 424 12463 15192 15438 10419 11169 
10507 11764 16032 4293 10423 122 3447 5303 13389 
14614 11984 13199 14055 6188 11975 4612 17018 2664 
10861 7513 8829 17463 401 7717 3775 8917 820 
6638 3110 12440 4942 9303 6266 5572 6927 7427 
3860 11923 3186 6155 3425 5798 14668 15256 13195 
9636 3330 6658 5568 13631 1412 2686 9651 8168 
10293 2103 6080 133 14332 14871 8645 2859 1929 
1482 14079 5642 8595 4397 1466 913 3594 11580 
983 13519 15000 17673 5149 12486 13297 17618 16217 
17331 6005 2635 14181 3051 5789 6588 16526 14929 
7362 4189 11236 4266 2751 1722 1612 8469 16863 
11722 17288 10147 6356 2443 5296 14208 1348 7596 
16291 780 16974 9300 3410 7644 2678 4411 6274 
10227 6921 17835 12308 2002 9141 1871 588 8582 
4137 4051 12922 7574 340 5702 6082 5307 10902 
11587 9895 3399 16089 1989 451 12877 2329 5973 
9625 1292 4986 15843 1931 5901 9892 7055 4731 
4308 6684 9954 14021 607 4586 7563 10367 11430 
14458 14116 16822 6020 8033 8575 11087 5732 17567 
9416 15721 15917 16197 12057 2266 3417 13721 6563 
14009 8133 17619 14381 11739 6023 16281 73 9503 
13121 2818 10243 8087 16529 3349 9208 11735 14377 
13890 12312 11081 11757 6697 15606 2719 5655 2639 
6663 10917 17383 14047 8435 11906 7071 13186 3946 
16084 7175 7455 17241 15466 2945 16886 15080 2492 
2414 4953 15579 272 4080 6932 14726 6823 17029 
16674 11622 19 6562 7902 7636 8923 13255 17081 
17764 8705 4439 16173 6744 5191 9011 17410 17363 
16921 12278 13196 15866 16854 16353 5326 6644 16083 
1261 13616 5524 2695 8976 12541 17314 3166 12534 
13476 2092 11307 13207 13957 12507 3827 10405 9410 
5584 7411 17784 10741 17660 17285 781 4100 12357 
8042 6814 9507 15336 4152 7359 4827 15209 5637 
13428 9488 12494 3037 10440 8392 100 4870 7974 
10722 13987 15374 6190 1066 10055 9555 7939 7654 
15920 14136 9203 5420 3112 662 11709 12316 8626 
12108 15801 9377 1263 7559 6211 9119 10312 15648 
12997 15685 2128 14968 17600 14380 16650 155 12155 
9351 10390 1978 467 7328 12527 9262 13894 2284 
9816 15957 13214 11980 17749 11985 1458 443 4569 
12889 6905 12746 14070 16935 2116 5862 9548 10601 
9362 10116 11983 14115 13348 5442 192 12143 55 
12324 12655 15403 2763 946 8873 5398 9387 4749 
16228 1013 17265 2421 6903 6400 17789 1824 10585 
14520 17326 14054 16514 14786 722 16107 3098 12263 
17188 10326 7395 17590 14148 8968 13992 10080 11682 
11575 5360 6621 10986 17766 15278 15689 6481 9312 
7176 4276 14132 8287 17127 10476 10210 6937 4132 
10372 2469 15967 14552 13396 115 9226 2765 13074 
3709 14930 14936 4200 417 1892 5550 9107 555 
11483 8299 3165 9991 8169 4158 266 206 11398 
1417 14085 9833 14988 9299 6254 11869 6262 2525 
3635 6464 5735 17119 676 12584 3454 10757 5135 
7760 8482 9042 5367 3690 3676 3022 2536 6586 
697 5625 1407 1132 706 9763 7498 775 3837 
4894 3296 4828 2018 5192 17584 652 4192 1345 
4614 5314 5079 6298 3196 8512 4782 146 8196 
5746 5569 1938 8835 12832 14577 2027 3876 102 
11228 5305 12147 15502 13617 8927 3914 10533 11576 
7660 10660 6800 350 7653 4583 1963 4977 7629 
14940 3886 9492 2222 3841 3463 8813 7459 12198 
15691 14869 17360 6174 145 4633 5224 10154 4377 
9482 11914 14232 3869 11126 11772 12137 2863 11971 
8164 10270 16421 552 2388 10903 6975 12545 9390 
9282 12121 7733 7181 9216 8713 15088 10095 7269 
9661 17420 15112 1651 202 3484 1732 12153 13009 
15427 14890 15985 13742 11058 9747 17182 11669 6289 
1213 2384 8496 3024 595 10798 300 4025 17445 
5074 12576 8967 14317 8060 10319 5151 3881 4428 
2205 15630 16328 3460 630 13868 8039 8966 17226 
8688 15930 14016 7872 5183 2867 14404 17021 17755 
9836 8664 5997 13172 15414 3405 16028 9069 11842 
13258 17817 11455 725 13089 16382 5047 8344 10729 
11758 8454 11116 7646 9206 7028 7341 7058 3344 
1870 1195 12431 14278 5343 621 6850 4748 2383 
197 4798 15140 10435 12478 6070 12242 2062 13 
9139 3423 3712 12068 5218 11684 3796 11380 17261 
5446 2293 1617 7903 7675 16301 7606 14752 9483 
13244 2638 3450 2049 17387 3257 11071 16193 3778 
8492 12957 3903 2046 17164 13575 14783 12303 938 
4667 2472 7195 6584 14398 10114 1990 8635 11830 
17479 13377 8671 7659 11861 5042 12935 2275 7302 
7472 6603 11979 1448 12195 15595 10920 5753 4304 
2687 11666 6391 5830 2987 2738 11695 6094 11253 
5150 14024 4582 683 614 3271 5027 346 2815 
3228 11855 14268 2440 14464 12284 10497 6291 4973 
3913 5026 2673 15214 16357 9973 14720 4453 9721 
1130 2405 9227 10289 16430 9898 8511 8740 6546 
9819 15925 10699 13319 8895 2011 12761 9570 5344 
1296 1449 12443 6935 5854 9245 3264 15290 11974 
659 11848 3737 1399 9420 17289 562 5929 15658 
4475 5925 15307 15938 6705 10518 514 5733 3033 
2881 1897 7631 13243 193 6252 15338 5248 3381 
3835 17591 10652 11578 113 4007 3653 2376 5638 
4933 17086 10369 1760 5701 16744 14146 2154 9125 
12516 1253 7361 15241 13670 13411 5748 3242 14189 
16666 17342 14229 10437 5000 11163 8792 16484 16753 
6501 16363 6651 5102 2994 12585 2160 12786 11139 
1675 176 930 2330 589 9837 12269 13790 16182 
7579 16508 7942 4729 1285 9575 3941 5252 9355 
15275 14795 10783 13970 4254 10611 7171 16579 14387 
2233 10833 8909 5199 5254 4082 4006 7524 9831 
9017 16026 4024 1371 93 3232 17820 11293 2227 
2646 201 13822 3325 2992 1831 6350 10496 1199 
1608 15826 16527 6737 13689 17301 17620 2268 4195 
16785 12848 16967 14248 14969 7155 6405 2246 2668 
12002 12425 4783 9989 3020 6670 17258 17752 4424 
14095 14554 12976 1102 7012 11036 4743 17667 13448 
10357 14145 5721 10073 8048 792 225 9169 5931 
11797 11038 12884 1349 14213 575 8139 4255 1650 
17844 15046 8397 1583 6203 9579 17790 6369 3663 
14347 1372 14311 654 2308 13811 10952 326 10772 
14586 12995 12142 5844 8669 15487 14330 11775 12221 
17525 11325 11467 16093 8383 13349 14879 6111 13704 
17836 10306 1735 13766 17406 17123 728 15894 17124 
1320 4061 6243 2913 13397 5431 11894 12479 6993 
132 5346 6974 3790 17095 6342 15287 8993 11802 
8456 11691 12422 14010 13770 13237 5438 1228 4290 
5872 17544 13171 16074 8295 8470 7852 14731 9577 
16478 11461 5472 17595 2510 703 15453 13232 10219 
9302 2604 5174 4354 14272 10106 13873 11607 13355 
12883 15101 4049 8803 17631 1128 5271 16928 1239 
10432 16510 8560 15422 17242 17843 13369 14395 17000 
296 5835 16937 16423 3230 17816 521 5348 12931 
12795 14165 15179 3026 1907 9554 2495 3431 7514 
8554 5178 14364 1336 9061 16927 12372 12404 11227 
3823 3421 11610 4156 4598 2325 9349 15702 3988 
17407 10491 3299 14023 15210 9854 17704 2601 2879 
10926 669 9707 15946 14619 6718 6403 866 11149 
15478 12261 1440 16455 12334 11935 13922 3204 551 
988 3158 17270 12914 14537 17505 9804 16244 13553 
6947 15188 4262 11852 4002 1710 7339 5471 1934 
17605 13920 6734 7577 11787 14959 8198 9926 3254 
5049 11655 16451 427 7507 5613 2081 16049 9019 
14533 12813 13236 16029 10756 15381 7930 4909 8268 
2244 13658 9561 9937 6413 7941 7030 7324 3434 
2194 12954 10294 11192 12730 15383 3135 800 13362 
5050 3725 14796 7542 4905 3064 8359 14674 9079 
13827 15234 15045 14505 5806 13215 7221 7280 2523 
10820 11310 15379 12306 10566 15776 13433 17026 16378 
16015 13224 1954 10436 15921 7994 7447 11656 15264 
6049 10605 1421 3171 5698 13138 16681 16915 1958 
2581 9082 9127 11774 4837 10484 16101 13651 8380 
17681 2684 16012 17126 16947 16288 4918 12924 13638 
6095 8409 2842 8459 10110 5694 1300 848 5790 
2821 2727 6441 15618 10835 7499 4110 4248 120 
12162 3045 8694 13158 7864 13052 7897 9345 299 
1787 5325 7135 1976 233 8863 6525 10204 3879 
4658 9165 10624 5043 13522 566 148 1959 567 
8545 1844 5867 5763 12395 10535 5577 5205 5381 
1918 15328 3339 6043 3610 1692 10565 7569 5125 
2352 3580 8034 9487 3575 8438 6090 10929 10688 
4603 6554 6520 2345 3481 11063 1211 10342 535 
263 2930 2082 3063 4319 2890 6896 3541 3748 
4850 5171 7428 5008 17718 4566 3600 5959 1171 
4910 1821 6893 3388 1933 14319 8370 924 3907 
182 6444 5480 324 6451 810 7389 7283 1922 
4637 11982 5200 10677 463 11966 15698 6365 4552 
559 7177 2234 12005 3248 12113 9476 6431 13646 
1746 11262 10281 9490 14715 5232 14611 2630 4220 
1840 2178 12315 2276 3597 8988 6747 1623 10072 
11824 7715 8301 6727 8331 13643 6231 13620 2286 
9371 96 11553 14389 16560 6104 5826 15430 8659 
9994 3150 15878 3047 3023 15573 7582 5070 2917 
8210 3691 2054 8047 8094 5006 15708 17377 15936 
10702 13437 1828 672 10425 3099 4604 9003 3543 
2702 927 6804 6977 16139 2571 6571 4660 5274 
7998 14071 1923 14048 4485 13161 823 11027 5331 
5455 12047 11423 2824 4318 10418 14490 7980 1344 
10396 5487 13386 8212 8353 3201 5578 15576 4873 
8336 14102 12533 16220 5708 1194 1457 4076 6396 
12495 8989 15395 14852 5663 9041 2423 12216 3840 
17291 10195 17036 14483 8536 8488 7122 17206 13326 
3084 6981 12014 9655 7555 12561 17611 5219 12709 
9765 9607 15961 362 10549 14615 8490 2791 4767 
11927 15767 15748 6488 12942 1993 14856 13430 16130 
4683 10258 9462 17760 5086 6457 8011 2760 7402 
9944 16154 16877 1217 304 17424 597 10888 15485 
16377 12055 14366 2355 9122 4785 16740 15503 14605 
11130 10014 11222 2651 16076 16019 10973 9930 11696 
16400 16037 6557 14976 2189 10586 11421 11317 1414 
6053 11778 13087 8246 15811 6329 5833 1708 12070 
11561 17608 1800 15139 187 8461 11577 1112 11951 
7332 11333 12179 14412 15023 14271 3147 9616 10930 
16551 5143 7599 6065 17700 15544 4405 2262 3327 
17622 1997 12804 7534 1136 2177 4711 2488 7112 
3142 8203 9334 11272 5623 11856 10448 11910 1780 
4563 1063 2648 8855 17838 13143 3486 2805 14843 
4292 12158 5793 17693 5660 13560 11612 3374 2836 
16683 9713 932 6772 10140 10988 4594 10135 9703 
2784 1104 2215 4642 16953 8992 16668 11456 2806 
7892 5419 10136 12624 6875 1303 9225 8959 9218 
1015 5961 3966 2253 8642 1343 6462 13283 7274 
2979 16970 4532 7700 10272 8872 15586 106 14572 
16166 1267 6837 4908 11760 7115 14437 13105 6119 
12373 7763 7170 12244 11725 2059 12418 2541 1515 
104 3924 6547 8593 5590 3435 3439 3655 9295 
14751 10148 14610 16213 17159 382 4556 642 13540 
7423 24 4724 15597 9446 5935 14354 15327 14247 
16389 13624 3278 16126 15627 10109 7488 5017 3113 
9244 1774 3086 11817 15875 14862 1475 3644 6740 
11390 3446 17449 15377 15166 6978 6528 17358 7424 
7855 5800 3009 6832 7106 11937 1389 6723 9149 
5540 8711 6803 11862 12148 4247 2670 9696 4034 
10462 7232 16297 15272 7309 16195 13709 15615 3558 
8625 3534 8401 118 1737 13184 7394 7770 15965 
14358 2282 9411 6433 9641 3899 6427 8161 1289 
14810 17653 7925 6229 1353 1463 10279 13272 4093 
13728 2451 12175 11311 5948 2996 8693 12119 15407 
2433 14775 9081 2299 11233 7841 1801 12554 8450 
4542 1786 9197 16129 12927 12434 3762 10049 9449 
13311 3077 11929 6502 9521 14790 7626 13359 14455 
5182 17558 12340 14526 7832 7673 10494 9267 4504 
6461 6855 4087 9500 13401 6336 10117 14927 17347 
10844 10752 12677 4611 17668 5129 11153 1783 10537 
8070 13504 7326 3362 2285 13346 2504 14215 17437 
5615 4503 7820 3797 17540 5489 4607 8314 8682 
8994 7231 5010 2576 1086 13392 8167 1465 9977 
16810 14763 430 9338 7305 10620 989 6575 10328 
5804 10591 9541 6973 5999 2983 15097 5587 11841 
6384 5595 4360 3927 2069 11697 5220 10563 8116 
14369 15341 7926 8622 17744 1973 6712 17580 10655 
15861 14178 9013 12640 10469 5421 16850 17252 12610 
7741 14949 12689 13131 7192 2310 1662 3334 13680 
9623 11353 7971 8427 1002 1644 17769 11197 3483 
14241 7672 952 15947 12912 15149 16820 16905 4181 
2587 9428 5873 12567 8294 17032 14506 16120 7547 
6776 5263 809 13318 15761 15817 11150 4941 4698 
8605 3498 10113 1981 12538 14502 8529 7920 10771 
9263 14320 2565 15535 15864 2476 10508 6787 7886 
3601 3542 2387 9171 17569 13192 14250 11883 5523 
3478 17001 1379 603 13810 12423 11857 9916 5058 
12690 10774 1806 2272 16483 2145 12740 8013 17042 
9366 16372 16048 9869 3815 2375 9843 4496 4799 
13855 14249 15855 11835 7726 6892 11977 2380 11989 
16004 746 5119 7178 11679 8354 12430 1024 5195 
13906 2195 7426 3167 12782 11498 10407 9529 12816 
2226 7358 16471 1155 8945 6307 6165 10635 14296 
13567 3598 16806 15833 4023 14944 13872 10963 1914 
150 5989 910 8527 9129 6872 4145 5792 1280 
16036 8528 11875 8457 11881 9935 12305 84 7899 
17721 15335 277 15230 12537 4455 1841 9683 872 
13333 8237 11313 3234 4014 4010 2832 8926 16632 
1259 6917 10324 11112 14002 5073 8406 15592 8147 
1526 6853 4723 7544 15757 15057 17696 1894 2291 
12475 16698 10753 17494 12839 1148 6237 16495 7346 
14219 13921 1134 12601 3244 7479 8241 11969 17271 
5960 6991 5016 16494 12021 8297 4561 11742 12980 
13298 10017 2070 14339 10812 5439 4310 6835 12442 
10275 8089 694 15082 16624 15079 15025 14874 16523 
9157 4824 7238 1170 1827 14466 2365 11384 10060 
16705 14906 16660 13063 17498 16344 5785 10683 16169 
3340 14665 10201 10465 12135 8235 15973 13277 12664 
8312 7350 11351 3585 3200 10900 8041 7731 10578 
7964 8103 14196 9147 14563 13003 11407 15680 4364 
14628 1262 4627 3280 16702 7521 2710 7118 8465 
13439 15831 8833 4978 15978 8078 4902 16643 5899 
54 12683 7062 7202 9098 3533 8216 15244 13372 
2746 9325 9268 1972 17059 15926 6583 4298 3826 
9086 13048 5298 4733 11012 10710 14859 579 4841 
6891 2243 6729 16829 10382 2823 1781 1437 7905 
14701 14105 6948 11687 8746 11393 13149 14996 3669 
7308 4920 9917 6828 12734 4314 7327 11189 11134 
6513 16550 17293 4294 1166 8350 2496 16635 1029 
17763 13784 5512 5428 10144 8637 2494 4217 3605 
1655 10650 8922 17642 2172 3263 289 6679 17732 
6132 9395 2701 3670 5411 3989 4925 7968 14710 
9905 7329 13587 7870 13967 12751 11961 17335 12882 
10274 11609 7835 15609 7278 10133 5189 6760 9622 
66 13198 2196 3912 1160 11443 5640 4830 13390 
6029 4072 1984 1835 13608 6067 6485 2628 787 
6996 628 11788 5719 5108 1442 10005 3741 3961 
2001 11021 6110 3060 15621 949 3331 7033 2871 
12692 5445 2773 524 1232 5484 1657 10302 9773 
6796 5605 1483 1101 5809 3588 15354 4812 3761 
2124 5045 6592 7822 4769 6273 8924 10417 17654 
2416 8491 1543 11579 2101 9923 10317 5260 10941 
3754 1014 3161 1554 6581 5498 4896 4391 7705 
1447 3052 8773 4234 359 4893 3012 1639 3471 
4090 10087 6589 321 1951 6292 3406 1677 2123 
8908 9872 816 15570 15294 4705 9187 761 2445 
4209 1200 8484 17357 12202 6357 7708 12026 12612 
15365 2505 11745 7114 11187 6881 1076 8887 1438 
10022 11218 6662 7622 8824 4121 15098 15199 7085 
15175 9628 1140 366 6304 1642 3648 12622 2418 
1070 11800 11239 8755 8494 5751 15033 7320 3258 
17165 4845 6097 6168 3436 14902 10097 7623 12551 
8569 5903 14133 14121 15085 15238 1582 17398 1008 
3566 4501 5492 11006 7796 16307 7198 5891 4744 
9151 15073 17428 2889 11343 4404 168 17447 3738 
15442 3367 11374 10927 15007 10947 6783 13313 7678 
2652 11825 777 7932 9754 12990 17088 10271 5695 
6815 6366 2214 16409 14928 13699 10614 8640 10915 
9652 6084 1356 7213 3514 4668 4474 6269 6470 
6912 3250 6330 11396 8538 9258 8969 10532 3040 
10739 10697 17392 7165 306 9887 14568 8227 10618 
6189 14616 11591 13598 2327 7197 7580 1026 9690 
11424 7265 12654 7183 16816 17152 8445 13990 10826 
1877 8615 1247 11699 1461 1147 4300 11549 1392 
16574 14650 2946 15602 5856 11375 11978 1287 10877 
10805 2159 6401 17615 5883 4536 11229 53 17240 
16720 14194 9331 11645 812 1054 8779 4976 11219 
10916 16150 11068 15556 16262 13438 13416 17149 11411 
5964 14498 12821 11242 10737 116 6806 1707 7533 
10944 16670 17682 6438 14529 16134 9045 16438 7789 
13968 16765 8882 12739 17283 4154 5181 3049 15092 
12502 16424 11888 8415 11997 11428 1995 15686 5055 
9170 14822 14717 14372 14942 10695 4320 4676 17349 
7955 8868 8257 4218 2944 1276 17699 7969 12206 
11959 3645 13523 15521 6669 10700 13683 10125 6164 
4544 9972 12297 3106 14548 16491 11319 13974 3744 
6573 8818 10889 6135 14596 3623 16186 10471 4341 
2520 12847 3029 10389 904 5003 9217 1467 10673 
8549 10847 3394 6809 9795 4932 1370 5880 1940 
11705 10567 4588 2948 17783 379 2248 3505 12010 
12421 227 13655 4576 5580 8104 16287 17389 12866 
3743 836 6012 14120 1950 13482 7140 7585 10642 
5269 13602 13219 13178 11184 12476 5317 6004 12802 
6851 17645 2922 3939 10028 6011 4103 12169 7442 
4083 921 10257 3402 3643 7482 3108 10264 4098 
13510 5794 918 2775 6072 2757 13908 15183 5470 
12972 3702 2828 17832 9342 5522 11426 16017 13113 
10553 16763 7215 3146 9063 2171 5851 2844 6120 
11521 13729 10203 2442 6976 6101 11823 17323 10212 
2292 7347 7756 11953 6730 10198 12184 17366 886 
11179 12164 9662 6417 2885 1936 6079 8306 10341 
11732 4449 432 7938 8305 17116 9605 4309 2949 
5725 17652 3163 7378 5532 4337 3240 7000 5778 
2470 1888 9029 16616 259 12270 472 12546 9002 
12764 2370 11536 3304 11670 10784 11215 9752 2464 
752 194 15509 3355 633 13776 13449 8023 2501 
1965 10209 17328 5024 1854 3896 10924 12493 12500 
13398 13925 919 12205 3038 7196 10914 5691 6207 
17228 3640 5610 11858 16023 7650 4441 2817 5342 
11266 17106 11108 2709 15731 11439 4641 1910 2279 
6508 5435 5475 8579 458 1244 8800 11011 5526 
12862 7057 13155 7797 5268 1798 17028 5440 5415 
2998 1499 15601 14999 8805 4955 2078 16926 6240 
12522 9367 13220 16581 9578 5018 9784 17510 8843 
5940 3298 2419 685 72 4585 1764 3950 16060 
13808 12123 4167 9633 15032 13315 8307 2631 11651 
5259 14147 822 4994 6868 11667 16247 9346 11026 
13046 14040 15765 3336 5096 1971 5958 17848 9106 
6646 5147 6535 10510 4970 13014 15572 4842 6054 
17221 8282 4467 1762 9316 4815 6626 12321 12377 
17524 7663 3972 12487 10776 9124 10406 13549 12908 