# vtk DataFile Version 5.1
Generated by LIGGGHTS
ASCII
DATASET POLYDATA
POINTS 17850 float
0.00475248 -0.0131714 0.000283853 0.00563567 -0.0145172 5.64485e-06 0.00582488 -0.0122639 9.36655e-05 
0.0146824 6.38355e-05 -1.62493e-05 0.0023303 0.00660371 0.000389805 -0.0166013 0.0172366 5.89676e-06 
-0.005182 -0.0289773 0.00243686 -0.00404235 -0.0289985 0.00270608 -0.00292919 -0.0290842 0.00228878 
-0.00206054 -0.0291681 0.00306607 -0.000816948 -0.0292413 0.00285954 0.000331674 -0.0292192 0.00220645 
0.00138018 -0.0294124 0.001595 0.00275198 -0.0291687 0.00155818 0.00426179 -0.0288966 0.00159602 
0.00551797 -0.0289236 0.00171082 -0.00790181 -0.0279037 0.00169347 -0.00641197 -0.0286079 0.00272209 
-0.00347991 -0.027964 0.00183168 -0.00230555 -0.0280685 0.00294128 -0.000999161 -0.0282217 0.00305591 
7.02266e-05 -0.0277817 0.00192324 0.00142829 -0.0281395 0.00284806 0.00216981 -0.0280104 0.00201426 
0.00652535 -0.0286059 0.00127713 0.00769991 -0.0278602 0.00124205 -0.00709027 -0.0272075 0.00138889 
-0.00472691 -0.027919 0.00229798 -0.00289286 -0.0269454 0.00300298 0.00162162 -0.0270192 0.00248536 
0.00378844 -0.0277019 0.00177072 0.00567083 -0.027784 0.00114218 0.00915911 -0.0271751 0.000927385 
0.0102419 -0.0272949 -5.6747e-06 -0.0127603 -0.0264098 0.00200303 -0.0117289 -0.0264482 0.000907672 
-0.0102238 -0.027145 0.00176311 -0.00918503 -0.0271855 0.00228626 -0.00531139 -0.0267201 0.00308978 
-0.00402785 -0.0268525 0.00292454 -0.0019587 -0.0267857 0.00252984 -0.00043604 -0.0269305 0.00265293 
0.00322257 -0.0265563 0.0022604 0.00535426 -0.0265332 0.00161438 0.00683721 -0.0264161 0.00120746 
0.00772272 -0.0268027 0.00176274 0.0108592 -0.0271639 0.00123424 -0.0135815 -0.0255565 0.00128066 
-0.0123567 -0.0253391 0.00165209 -0.00873727 -0.0257818 0.0024393 -0.00650985 -0.0267991 0.00229119 
-0.00333166 -0.0259019 0.00275344 -0.00129236 -0.0257461 0.00357933 0.000302428 -0.025363 0.00240841 
0.00234372 -0.0257936 0.00180076 0.00411875 -0.02562 0.00209223 0.00739054 -0.0255381 0.00162719 
0.0118045 -0.0265452 0.000414984 -0.0149779 -0.0252358 0.0022167 -0.00921601 -0.0260081 0.000810286 
-0.00426024 -0.0253745 0.00236318 -0.00316016 -0.0247713 0.00309427 -0.00217618 -0.0252679 0.00274492 
0.00201195 -0.0249405 0.00258669 0.00304316 -0.024921 0.00293532 0.00555629 -0.0253762 0.00153379 
0.00883031 -0.0258822 0.00117951 -0.0163735 -0.0241999 0.00266111 -0.0139816 -0.0245737 0.00234632 
-0.0128274 -0.0243647 0.00210176 -0.0113652 -0.0245419 0.00192601 -0.0101234 -0.0239905 0.00225799 
-0.00927183 -0.0243859 0.00165479 -0.00817992 -0.0247149 0.00265273 -0.00681278 -0.024148 0.00209386 
-0.00210232 -0.0239666 0.00215416 -0.000514919 -0.0246054 0.00283458 0.00481932 -0.0246645 0.00227639 
0.00624655 -0.0241165 0.000915238 0.00680464 -0.0246173 0.00175297 0.00803364 -0.0251449 0.00047054 
0.0111606 -0.0241986 0.000805567 -0.0145823 -0.0237497 0.00177193 -0.0107079 -0.0231168 0.00190144 
-0.00765012 -0.0236608 0.00300258 -0.00509816 -0.0232879 0.00328692 -0.00303692 -0.0235874 0.00347459 
-0.001012 -0.0232479 0.00307233 7.57721e-05 -0.0234392 0.00270159 0.00139591 -0.0240066 0.00247972 
0.00297185 -0.0237231 0.00269624 0.00917879 -0.0237145 0.00125031 -0.0191323 -0.0222272 0.00315292 
-0.0175959 -0.0223506 0.00302361 -0.0165286 -0.0229198 0.00244035 -0.0151573 -0.0228809 0.0025786 
-0.0134831 -0.0235525 0.0024288 -0.0123046 -0.0233556 0.00181967 -0.00968178 -0.0225329 0.00201122 
-0.00852133 -0.0227874 0.00199621 -0.00621654 -0.0228795 0.00267688 -0.00389482 -0.0228869 0.00334272 
-0.00288369 -0.0222712 0.00366024 -0.000414293 -0.0221746 0.00310695 0.00203046 -0.0230805 0.00262158 
0.00418558 -0.023257 0.00236818 0.00633715 -0.0229561 0.00184123 0.00793096 -0.0242764 0.00142603 
0.00877867 -0.0231283 0.00214791 -0.0189505 -0.0212232 0.0024539 -0.0140279 -0.0225747 0.00285385 
-0.0127949 -0.0226238 0.00290121 -0.0114242 -0.0226437 0.00265393 -0.00933443 -0.0210758 0.00204179 
-0.00859818 -0.0218471 0.00279411 -0.00153493 -0.0215132 0.00334078 0.00114096 -0.0225454 0.00238173 
0.00201224 -0.0219682 0.00295104 0.00306552 -0.0224724 0.00249243 0.004208 -0.0220744 0.00241414 
-0.0203575 -0.0209223 0.00185616 -0.017675 -0.0210787 0.00260547 -0.0131401 -0.0216017 0.00253999 
-0.0106823 -0.0216974 0.00246683 -0.0088316 -0.0203563 0.00273129 -0.00624789 -0.0209757 0.0027458 
-0.00459985 -0.0209488 0.00285963 -0.00399089 -0.0210545 0.00381916 -0.00100016 -0.0199378 0.00296932 
-0.000241583 -0.0214279 0.00388533 0.000815203 -0.0216006 0.00316901 0.0069979 -0.0220614 0.00145895 
0.00808413 -0.0217107 0.0017565 0.00871576 -0.0223252 0.000408427 0.0184528 -0.0224382 0.00118434 
-0.0184166 -0.0202862 0.00291848 -0.0164085 -0.0208996 0.00303896 -0.0142487 -0.0209288 0.00273196 
-0.0118885 -0.0205013 0.00206797 -0.0100159 -0.0204016 0.00274336 -0.00217554 -0.0205216 0.00351696 
0.00012587 -0.0203934 0.00364092 0.00252992 -0.0202597 0.0029861 0.00361552 -0.0202158 0.00238677 
0.00493776 -0.0202451 0.00210226 0.00627446 -0.0215184 0.00255768 0.00724324 -0.0210159 0.00270177 
-0.0220022 -0.0193726 0.00183082 -0.019409 -0.0196183 0.00239464 -0.0165841 -0.0198988 0.00232688 
-0.0128636 -0.0202677 0.00255037 -0.0117573 -0.019629 0.00356296 -0.010828 -0.0196514 0.00296446 
-0.00710932 -0.0195715 0.00400318 -0.0050609 -0.0194387 0.00393532 0.00566793 -0.0195432 0.00174355 
0.0086076 -0.0200309 0.000517231 0.02021 -0.0211107 0.00102207 -0.0213448 -0.0181204 0.0021115 
-0.0197146 -0.0184097 0.0016375 -0.0175374 -0.0188116 0.00219385 -0.0146259 -0.0187413 0.00142102 
-0.0113525 -0.0185782 0.00328621 -0.00945253 -0.0192019 0.00306018 -0.00815358 -0.0188112 0.00389459 
-0.00629316 -0.0183467 0.00287823 -0.00496647 -0.0184206 0.00340236 -0.00386654 -0.0185497 0.00386654 
-0.00175765 -0.0191889 0.00377417 -0.000520908 -0.0190886 0.00359041 0.00104634 -0.0198938 0.00327619 
0.00321131 -0.0192581 0.00280253 0.00484318 -0.0189188 0.00229651 0.00959448 -0.0191345 0.00168638 
-0.0234147 -0.0175106 0.00197127 -0.022425 -0.0177813 0.0024764 -0.0158455 -0.0185495 0.00218628 
-0.0135467 -0.01839 0.002256 -0.0121883 -0.0178623 0.00189988 -0.0101809 -0.0183069 0.0028127 
-0.00849323 -0.0181084 0.00301054 -0.00370206 -0.0176377 0.00326015 0.000630203 -0.0187061 0.0033595 
0.00196708 -0.018912 0.0030657 0.00406639 -0.0178338 0.00235934 0.0057422 -0.0182838 0.00238802 
0.00672881 -0.0177944 0.00255757 0.00761326 -0.0183006 0.00203563 0.0191443 -0.0197978 0.000441612 
0.0210919 -0.020183 0.00140412 0.0221158 -0.0192882 0.00201642 -0.0240953 -0.0167746 0.00241972 
-0.0207587 -0.0171397 0.00210801 -0.0193732 -0.0170049 0.00171074 -0.0185024 -0.0178376 0.00138938 
-0.0152336 -0.0175483 0.00140012 -0.0137976 -0.0172436 0.00100912 -0.0120361 -0.016308 0.00180241 
-0.00763761 -0.0168522 0.00384431 -0.00511 -0.0168618 0.00341939 -0.00232477 -0.0174885 0.00345104 
-0.00132043 -0.0178452 0.00360795 -0.000183469 -0.0177712 0.00386418 0.00241738 -0.0178739 0.00294332 
0.00498904 -0.0171898 0.00250156 0.00825633 -0.0174515 0.000102714 0.0104348 -0.0168535 -5.77307e-06 
0.0154443 -0.0189139 0.00100775 0.0213684 -0.0191271 0.000544042 -0.0247675 -0.0157814 0.00218224 
-0.0229578 -0.0165163 0.00196505 -0.0218498 -0.0165609 0.00172052 -0.0181711 -0.0167381 0.0011933 
-0.0165001 -0.0167145 0.0010101 -0.0149742 -0.0163401 0.000496401 -0.0131621 -0.0166864 0.00274729 
-0.0109677 -0.0160957 0.00223308 -0.00938925 -0.0162087 0.00237975 -0.00653759 -0.0165483 0.00380765 
-0.00365484 -0.0164259 0.0032781 -0.00101324 -0.0168024 0.00359799 0.000256879 -0.0169023 0.00263599 
0.00187682 -0.0167361 0.0027155 0.00362653 -0.0164695 0.00215444 0.00606479 -0.0166394 0.00212462 
0.0112682 -0.0185929 0.000810934 0.0189307 -0.0175174 0.00243765 0.0197217 -0.0187098 0.0013999 
0.0224051 -0.018177 0.00165571 -0.0210018 -0.0167241 0.000909152 -0.0191933 -0.0158522 0.000805055 
-0.0160997 -0.0154696 0.00116252 -0.00839009 -0.0160296 0.00338333 -0.00706524 -0.0155456 0.00201516 
-0.00463729 -0.0157894 0.00345838 -0.00227347 -0.0162446 0.00286068 0.0068299 -0.0164513 -3.76155e-05 
0.00816599 -0.0163401 0.00144711 0.0178903 -0.0185176 0.00132325 0.0206775 -0.0167249 0.00158943 
0.0214158 -0.0178187 0.0022996 0.0232703 -0.0173165 0.00201667 -0.0237413 -0.01522 0.00179379 
-0.0226909 -0.0148036 0.00202302 -0.0214255 -0.0152442 0.00147231 -0.0201732 -0.0149448 0.000957832 
-0.0175005 -0.0148058 0.000302778 -0.0152167 -0.0151182 0.000149019 -0.0138743 -0.0158046 0.000938142 
-0.0115146 -0.0149636 0.00211451 -0.00819032 -0.0146573 0.0027775 -0.00581938 -0.0152019 0.00319639 
-0.00378904 -0.0150155 0.00365167 -0.000265799 -0.0147605 0.00237156 0.0017718 -0.015082 0.00183732 
0.00385801 -0.0153569 0.00186367 0.00450694 -0.0148563 0.000808741 0.00582438 -0.0151062 0.00129393 
0.0106863 -0.0170917 0.00149489 0.0123433 -0.0177127 0.000535359 0.0133972 -0.0164118 0.00136215 
0.0158907 -0.0163411 0.00241274 0.0215161 -0.0167335 0.00269007 0.0244667 -0.0162954 0.00341696 
-0.024897 -0.0147115 0.00261282 -0.0235737 -0.0143163 0.00260478 -0.0204255 -0.0142333 0.00202344 
-0.0187944 -0.0147426 0.00068753 -0.0173041 -0.0132641 2.48934e-05 -0.0145026 -0.0145852 0.00185844 
-0.0133321 -0.0150356 0.00190666 -0.0109265 -0.0144781 0.00300326 -0.00700184 -0.0147586 0.00284422 
-0.00244012 -0.0150965 0.00328612 -0.00133573 -0.014851 0.002987 0.00287826 -0.0144341 0.0021635 
0.00405247 -0.0136391 0.00200765 0.00824691 -0.0150429 0.000947786 0.016644 -0.0153302 0.00243576 
0.0179978 -0.0165769 0.00224695 0.0225909 -0.0159023 0.0029151 -0.0257678 -0.013982 0.00308611 
-0.0245125 -0.0135904 0.00265079 -0.0214736 -0.0139069 0.00170382 -0.0194629 -0.0137628 0.000750242 
-0.0160393 -0.0136401 0.000343882 -0.012232 -0.0139781 0.00157186 -0.0101897 -0.0136718 0.00264695 
-0.00900883 -0.0137445 0.00320774 -0.00519062 -0.0136659 0.00322728 -0.0041414 -0.0141974 0.00284342 
-0.00222448 -0.0142467 0.00254732 0.000915267 -0.0140925 0.00171821 0.00904809 -0.0146575 0.00163114 
[...]
POINT_DATA 17850
FIELD FieldData 6
id 1 17850 int
17104 4465 16400 5530 4975 5591 16468 6288 78 
5407 11360 1690 6614 4278 10226 12788 17492 6640 
3011 1590 6687 6018 601 386 5826 3131 12147 
2827 12481 8544 10169 2005 5903 9681 9982 5340 
4144 9354 13077 9236 11570 13262 16240 17376 11176 
5377 5465 2608 5395 1163 1648 9725 5492 5161 
11584 7183 14164 5074 3406 13874 12457 3696 4479 
4752 17366 14683 15060 9328 9055 15515 14868 11249 
16742 110 6741 5986 10718 5895 6006 12632 14807 
6808 16044 15583 4438 2735 16782 15711 16556 16843 
1276 16381 15878 1551 457 2241 12329 16172 884 
4288 16856 4649 16522 17629 5675 15616 9330 2657 
14286 3137 12410 5558 3596 11543 10777 2522 5276 
4717 9084 10124 1140 3597 10511 2934 14865 11516 
9448 9155 17343 15966 10840 16575 9064 14112 12530 
625 10622 13087 6460 14956 12869 2572 15990 7975 
10834 12029 7885 8721 8794 13022 14717 6886 9550 
8032 2418 11213 10867 15551 14357 7095 5005 5578 
10727 3566 9077 1462 10969 10568 14551 14327 11873 
16546 17297 17448 15430 8488 15930 6971 7406 11674 
9251 10682 15469 10090 17486 13539 16781 14358 14125 
14797 12107 16950 16157 7989 10876 9875 10456 11299 
13960 14046 14897 6843 7134 4806 7947 17299 10845 
16965 8819 11425 16620 14316 7181 2097 14461 14315 
2549 4550 9229 242 9091 7546 11246 12923 734 
3829 9546 15951 13685 17148 9331 3813 7772 15231 
153 10006 12180 9440 6248 3308 8844 14032 16234 
15835 14877 15908 11375 1076 13252 2096 1872 4020 
14082 5437 2941 9960 3870 2406 13533 1741 4472 
3338 8490 12206 1489 12939 7789 11717 3747 13259 
13661 16223 15462 3177 7399 3940 7555 13472 10586 
183 2648 17490 8231 15073 16629 9765 13180 10838 
6456 1409 9812 9485 1435 17159 6451 7692 8378 
12654 10488 6555 11465 13901 15590 7788 1420 5847 
11480 5566 10895 10365 9578 15092 8039 347 2316 
12073 7446 5875 5544 6357 1122 4226 17025 5170 
777 12856 7629 7670 16095 15005 12665 16960 1814 
5222 7259 13308 7204 1408 12915 14918 7462 11654 
2087 12946 1887 2259 38 17717 4671 6915 9868 
8664 13142 4146 10271 5965 17399 5037 14928 14397 
16901 3904 16573 9297 14955 3796 14573 3955 5243 
1746 10773 7235 4604 5757 2425 3811 10990 12444 
11065 13473 2524 16933 839 8797 3201 3484 16729 
1670 15670 8526 721 2186 4820 13577 9940 3304 
3488 17331 15766 1022 4270 10414 6535 10431 621 
6604 2554 14016 7733 6728 4818 2046 4358 17156 
16567 14051 17484 5383 17057 14252 2946 13418 15007 
15389 7197 595 5433 4190 9467 1018 14346 13225 
5186 13211 16409 8221 5540 5783 10158 10621 17031 
4588 12880 7534 15414 8461 10346 4253 11669 5945 
8782 7112 10355 13174 10190 160 10837 16371 1667 
9815 3876 15718 3431 10706 7612 13852 2063 8880 
5964 3885 1380 17401 11951 17298 16485 17185 7434 
13511 15160 2463 11501 8248 16717 13168 14453 10424 
5793 8801 1539 12235 2256 7958 8546 16389 17170 
13684 9979 13076 7480 16457 14183 2568 261 14107 
11566 4881 17077 16828 9233 8816 12303 2600 15555 
13566 17811 17105 12771 3467 11963 13364 11918 11742 
926 11635 5950 9012 12352 11053 12434 2188 7624 
9200 16118 3726 12244 4596 14778 16765 416 11147 
13958 4368 15263 13441 17412 12015 12377 17280 4339 
8313 17608 7469 11223 1491 5137 5497 10609 7377 
15105 11673 2839 2962 9682 13755 11087 797 11550 
3973 4185 9976 15793 4959 3313 13933 17389 4715 
16726 6012 11346 6869 4449 12047 6571 2708 11357 
3644 7712 13611 686 17281 14479 16004 7869 710 
493 16181 768 14922 1947 12365 11819 5114 3919 
14249 7011 5042 2590 2298 12958 1112 13683 3051 
14615 6772 14326 6961 16599 12424 1036 1071 16213 
11580 17023 9703 12638 755 14766 9148 989 13889 
1340 15717 6498 10273 4303 987 12016 11478 15637 
7119 12386 8845 11732 6786 17386 14624 16374 7577 
15350 14592 5970 3335 312 3614 9379 5329 14864 
11504 7763 16301 2498 11482 4086 9647 10341 878 
10486 3178 14481 16362 6310 13594 3888 12306 14986 
14906 10704 8668 12314 9920 13804 6374 7474 6609 
11024 2260 5967 4916 16143 14733 16481 7720 4439 
13461 14855 7375 5110 10979 9577 11447 12225 2340 
952 9806 17603 11776 15976 17601 7890 3082 2619 
1494 1381 9959 15769 16304 3534 9719 8500 4956 
6247 8942 4112 1325 17835 9133 13338 13310 9037 
10283 5174 11714 14474 7161 15739 413 16941 15101 
12772 8527 6118 1292 3257 14983 948 16818 5391 
2758 2778 8573 14314 12626 15023 13420 12538 4607 
1723 3348 10057 4383 12648 9650 11607 13175 14060 
1503 17437 15636 7232 14162 11439 17374 17787 8713 
4415 9859 3292 612 8177 8911 14380 1377 4128 
4706 14847 6820 11675 7217 8476 9446 17827 7154 
14879 11487 4577 16063 8913 11206 10419 9394 15554 
3332 15116 12537 11034 10051 12278 11802 17784 2576 
3472 15722 15173 14949 4770 17609 9785 8534 14247 
16403 14654 4875 12155 7693 14223 3656 11731 4122 
4266 12953 4131 10543 6285 3242 10222 11620 15217 
16020 5804 4597 9883 13065 16148 1418 2819 7758 
2433 16630 17093 6317 9022 6445 7713 4114 15545 
16115 5066 2645 10234 12735 16465 6274 1402 13854 
13993 8856 10254 14690 877 2341 14369 15078 6845 
12248 8086 976 15443 663 17538 2504 8228 4799 
3899 13762 16581 7669 1715 8173 17466 15641 6957 
17554 2095 5785 282 7666 12189 16614 225 15594 
7355 15453 4842 12479 325 16920 16675 10066 16523 
17561 4535 9831 2561 6938 11913 9675 10218 14093 
16160 16277 2581 9862 10008 10137 6731 11160 15772 
16982 13038 11209 16415 3111 5672 14555 12415 7229 
17511 14977 5473 960 1090 12690 10909 15392 10627 
5188 10465 4906 4994 9599 16455 7494 5926 17764 
740 5304 16698 8542 12966 11577 15149 14068 860 
16905 11756 16476 17296 8669 9657 4123 7390 6597 
1930 13880 4324 13452 16939 15280 5244 9666 5953 
11134 17219 12756 5732 9625 11960 7205 6175 8405 
15190 9442 12889 11667 14521 15920 16992 13776 16440 
17306 14961 494 16275 8269 1863 3247 4720 9816 
10163 8694 5721 11739 16113 16353 7729 4132 12818 
14727 6690 5906 8976 10217 1221 8823 9956 16256 
14454 16039 4941 7367 4176 5090 6126 17589 1029 
6654 15742 1263 3727 17766 7073 4570 16967 16425 
13517 17097 15779 15361 13522 13784 3766 15954 8255 
14159 10716 10512 10330 16927 6127 13550 14773 6099 
17526 598 3185 6855 3164 8981 10608 11381 7641 
8367 1013 36 1105 11111 5109 13827 8874 11227 
11598 15905 8068 16452 6051 15518 15678 15284 8350 
14944 4727 13608 635 10421 17096 6370 5360 1219 
17506 15999 2997 783 7909 11852 3921 3064 9255 
4945 13716 9779 2125 3539 10780 859 12890 6513 
3324 16344 5862 8650 9936 17109 12283 4029 13460 
6228 10552 16091 11530 3851 6985 10188 1744 13135 
15223 17681 12782 13158 7391 9398 12024 5654 8103 
681 7084 5501 1388 7185 16961 7752 3808 16334 
15382 3132 5384 13834 9392 14968 12850 2307 17818 
9698 17127 15471 4016 6534 15528 14638 4616 10900 
5592 8485 1628 8602 4628 6510 17696 10789 17454 
14995 14628 726 17585 1625 4911 12513 1193 1976 
16069 10397 14535 17273 3845 13153 959 2469 4436 
13638 8468 7538 4899 14857 5818 16284 889 11377 
3210 8514 14170 3293 9622 13621 8618 10181 17166 
9450 263 3088 2803 10579 3665 1846 3017 2983 
11109 6467 2491 3879 9589 8132 574 3252 1568 
3130 3916 5687 9853 17048 447 15971 7067 17537 
5900 8626 12013 11471 801 302 11193 11322 4567 
10523 6043 17436 14741 11990 12956 16505 6956 4647 
6540 5780 6748 3740 3530 7135 55 2194 16228 
16190 5777 1446 7647 6613 1312 4276 9243 12641 
543 15045 14621 8275 6828 6554 348 4058 10204 
4147 882 3585 4824 14640 15787 5217 3654 15157 
2352 8 8328 13520 600 3605 10851 6760 16227 
14199 13409 5242 7034 6895 10692 2837 5924 1007 
1942 3757 17244 17154 11822 1731 16608 409 6130 
17648 11716 4937 4853 2054 6676 17357 4489 1782 
7527 1728 16940 11686 9720 17060 15039 11747 3755 
11256 6724 2939 10001 13710 11421 8538 14689 7705 
3544 5484 8014 12542 11078 15206 6021 15891 7014 
2379 15928 6215 11789 9941 4559 735 2775 12595 
6745 1008 4404 12458 10380 4989 12559 10428 5238 
1352 14433 8638 8075 1923 16134 17251 10376 4505 
9109 13465 11677 3436 14811 2698 12461 9553 2474 
7354 14974 6448 12280 16662 12061 504 1725 1666 
4735 975 12170 2720 14177 14819 12315 5673 16884 
17377 16431 7431 4758 10807 14745 16771 9813 2030 
7299 14155 9290 147 7699 9759 4725 5555 14312 
15952 11281 1187 13270 10030 17610 316 2836 10998 
8063 13019 9794 8568 12940 10619 13792 10795 11136 
16887 7001 15273 9135 6372 2485 17540 2221 9193 
16065 17461 13039 7862 7146 8166 12609 5649 10157 
11388 17063 11084 2235 5839 8227 13488 14661 16066 
9800 10645 5052 5355 14957 5350 6794 608 390 
6024 15652 2055 13659 10464 7165 16634 9992 17036 
17174 124 749 15691 6186 8558 3379 11047 15646 
16772 15649 15727 14113 16150 10142 13383 1322 8882 
15578 13327 2571 8109 672 12799 2759 12973 8995 
17748 2924 3102 6995 17131 13823 16924 3007 6881 
10827 9846 15563 8061 13528 1478 3744 5838 3819 
3686 17722 7429 8178 6129 47 6586 10498 8199 
6351 6085 1217 13193 8131 13778 8219 10246 14134 
11429 3012 5386 16737 1441 4795 2384 14950 11083 
2781 9105 6328 6847 8989 14987 6664 13713 17051 
13430 3149 7588 11460 15953 17253 1141 822 13489 
14651 12411 1308 15325 14550 11592 6319 14843 3301 
11904 15824 11096 8585 9665 6900 10207 12521 17804 
11851 13365 2852 11695 10673 8853 4754 3713 3182 
13791 5542 16357 5856 17369 6789 14730 7470 12011 
10583 6533 2968 3718 5413 10418 11042 15424 13846 
8226 12886 15495 10016 6610 6702 13330 14882 9045 
359 146 807 4025 4807 14757 17021 14954 506 
4390 4677 9099 5278 15994 1868 13103 7150 7791 
16393 6244 4629 14848 17400 10454 7724 937 4183 
11434 942 16126 5396 11431 17353 13504 856 7096 
2280 14860 15899 9405 3962 16022 17206 8414 4792 
1043 2762 13419 2787 14464 3290 6966 379 3480 
15700 8478 13950 1766 14224 10648 15434 1025 17738 
11948 8982 11014 3752 9857 3658 2613 16484 17352 
11286 4365 5936 9925 12010 9518 9684 7535 6469 
13773 2757 14133 10610 12190 10455 13218 9661 14436 
5925 932 14532 12115 14856 1980 7124 9756 15250 
1081 12819 12222 14193 16525 14971 10931 4233 13523 
14231 2853 11264 11413 8223 16588 1571 9688 2171 
13266 5440 5139 9700 14989 16649 13092 13574 16013 
168 14942 933 7553 14507 1063 143 8859 11872 
13926 13129 3623 7804 5047 16826 6409 13463 16224 
4631 5441 17476 16258 7872 15458 2091 8715 11957 
3525 6363 1528 14457 10351 16757 16096 4113 12489 
4087 5352 10976 1459 8795 13408 13072 11339 13353 
7319 17248 3514 11703 11803 9737 13923 8284 6291 
2383 14636 11489 17086 3425 13110 11906 1830 6345 
8306 9726 7907 9218 16664 6265 6807 13641 6941 
9749 3320 1627 4582 15558 10559 1997 373 8651 
971 14664 5713 13510 6705 10004 15475 907 6063 
12523 5131 16762 12635 14816 11061 17791 4102 5864 
17267 16723 14149 3227 6153 11294 2362 2197 7373 
12255 10093 12321 8140 1763 16542 5504 5117 2160 
1960 16739 9867 13678 9634 13893 16011 11856 340 
4104 12834 16785 15748 1597 6547 16129 5565 8729 
8460 5223 1320 4670 1948 16121 17237 10000 11082 
1235 6711 9563 11738 5946 12195 7486 3368 3346 
13311 15915 2059 9407 7347 17658 7170 5724 14513 
10467 2215 7938 2136 12050 6689 7777 9910 9951 
9346 7208 13392 12548 1106 3277 840 15154 1066 
9879 7419 7799 6824 9017 12576 9145 10725 11289 
13637 3922 13242 914 16559 11890 3307 1376 10977 
16555 17189 13553 6826 3100 17288 11159 1135 15736 
7326 3716 11999 141 2039 6740 3773 7756 15229 
1393 15882 7038 14781 11730 16445 12541 13935 2050 
11472 2662 15826 11664 17752 10049 11163 5145 17848 
4475 11104 7746 3738 14892 1053 12350 17734 15336 
10002 2879 6723 11195 7396 11325 1465 16019 462 
14699 5057 9937 1665 13178 8469 17727 14376 14250 
6874 13544 2099 1382 14437 6222 12196 10890 4088 
2329 8205 12898 17006 13085 15429 15608 14712 13062 
12516 7800 8543 6551 14449 14429 10088 4751 1421 
15721 2996 3378 4617 6091 11629 13166 4739 15274 
12729 8293 8848 5559 9008 1239 13209 12161 9635 
3652 2422 9219 2147 15436 1301 2898 13004 16753 
10402 1879 17099 8279 7661 11545 4517 604 2601 
8237 9897 14969 73 6921 1431 4093 13363 5738 
16566 10373 10518 13940 13003 16743 8119 3970 1734 
3887 16919 15410 2375 7710 4463 5270 1795 15827 
5977 6892 17102 5750 8217 1717 9493 15647 10360 
13737 8361 9256 1841 6338 9569 13911 11692 8354 
17076 6577 14908 14499 11754 8153 5283 1652 7192 
14261 10712 12840 8529 5072 14889 9515 8751 9826 
10754 2237 11060 4051 16666 10312 13331 10243 9784 
11643 1794 15055 4162 16071 5030 4332 7847 2220 
6095 3956 10510 10272 14517 5430 7043 3078 12993 
12213 17416 9605 8703 11920 407 2610 4049 875 
7584 17087 14092 16841 11630 3685 14385 11479 4350 
4731 186 1440 2114 4585 274 11403 17743 11161 
10219 13373 1684 14353 14347 9118 1867 12049 6093 
6546 2577 8436 17616 5585 14875 16788 10758 16820 
2562 2308 15257 8393 15651 11757 2904 16913 6561 
16247 125 17213 2492 13531 4986 3356 12884 4014 
1622 17662 13885 11050 12750 16030 5872 15567 5596 
15166 15644 8968 7631 3490 5689 4443 1827 9162 
13850 16335 11970 17064 2207 10912 15214 9590 2120 
12701 13690 14570 2593 3366 8955 9272 10025 7571 
2609 14070 13185 13401 13922 8680 5587 16128 15875 
7576 1988 6335 1241 11829 13719 14537 4755 5922 
1858 4328 17528 482 9557 7327 2622 13934 3207 
15606 7902 1609 2391 11265 1296 3772 14136 649 
7101 7248 12118 246 4100 7290 11837 12084 1934 
4822 12725 94 5338 6253 2254 12392 1369 3171 
10884 12650 1536 17547 12948 6441 15121 8601 10928 
41 2495 270 2438 1709 12492 7263 1634 1874 
8756 13894 14785 12647 7560 7123 2763 2086 12552 
5373 1046 10986 6041 1757 4354 1686 11938 13663 
8636 10390 16799 10590 17336 4946 9321 13296 10065 
17188 3660 14930 11790 10449 17439 6259 12540 2764 
17068 17443 13768 6504 3371 10680 2034 10504 1033 
11012 2714 1579 365 9877 17517 17697 5214 2061 
6849 12200 16169 16861 4158 14608 180 10566 12081 
8920 4855 14310 305 12564 14678 2753 2937 7264 
8338 14350 2243 12325 15631 39 15208 11924 11359 
8122 11551 16652 4826 4314 2389 10116 16550 578 
14466 2897 4865 6917 2117 16780 15133 13831 16985 
5300 2872 6276 5142 14512 16811 6142 9934 13145 
4686 7241 9545 2304 16269 16288 844 17649 4832 
3635 5155 14533 1453 6600 4214 6752 2421 11719 
6902 4506 6133 15805 15074 10935 5035 10129 12864 
12745 12294 10189 5264 5135 1658 16515 6458 7064 
12562 616 12020 14256 2842 6067 13712 13236 15120 
17300 10836 4928 7754 9 3274 7499 9516 4156 
9506 1334 2081 8637 8041 10972 7812 13562 8535 
1304 6354 5287 1754 567 523 1643 3016 8576 
5684 12087 1788 1585 9298 6066 1918 3165 10804 
7676 6713 8323 16865 11866 7006 4473 8545 352 
8137 13101 4064 8024 6254 909 4389 2816 13996 
8056 14599 1564 12335 9042 2082 5277 5369 12765 
3453 1251 3172 11181 1265 12731 14331 7781 2204 
9490 5622 14496 17080 6466 9887 2015 1951 4980 
17730 15348 515 7148 15216 10626 12004 1057 5146 
15543 10888 14813 378 2489 8775 10790 15167 11167 
6223 16205 12558 7605 5361 865 510 11252 322 
13459 4893 15505 3449 3369 2000 4811 6735 7978 
12657 2473 1010 511 16271 11069 4209 1843 12896 
8689 15047 14561 14048 1094 15178 6747 16949 4175 
4160 6804 4690 17212 8363 5725 8933 4429 3609 
12622 5240 81 8615 17193 7257 7656 6479 17635 
12960 10028 15538 17414 1607 2286 2936 14403 2374 
16760 631 11940 9777 14643 7418 20 15852 2153 
5092 8194 5648 10779 14639 15061 16142 1224 4780 
16996 2123 15062 3590 3291 970 15661 5534 9174 
2328 11006 1294 9419 10261 13154 13257 7558 17122 
3375 2201 7438 12688 6692 12796 279 14442 4366 
16123 7583 17497 11893 2057 16687 12399 16801 12624 
14637 15846 5274 9975 1851 13984 1968 2200 7239 
6425 9810 14084 16533 4490 7751 15584 16775 7858 
9638 13024 10857 14539 2430 6444 4515 10916 12545 
7632 12656 5251 16025 1659 12234 9076 1288 11934 
17534 14696 11975 1541 5002 2407 14106 13303 17009 
1069 3543 7822 13598 12447 6026 3929 15235 6135 
4079 6094 5026 17802 13667 7488 9484 3909 2611 
4464 8787 12633 4405 12669 8060 16894 10319 1970 
10765 1688 3463 14744 17847 14511 7714 13812 6365 
10149 17755 14662 12555 9102 7988 16218 577 10230 
128 7222 10549 1939 8181 13018 11623 9070 18 
17614 7893 11218 6163 9652 13752 1691 2287 12045 
14725 8808 11820 1860 4285 606 10933 14055 1339 
9949 3317 17405 8000 15246 6769 17240 14799 17799 
3140 16545 8285 16438 9767 2462 2704 5351 7074 
12947 12345 3194 14079 4267 6323 11572 11831 6795 
7439 304 15985 8358 7341 11529 5656 5676 7681 
11507 6283 5546 14258 481 16849 2742 12628 9573 
5086 13040 7765 15484 4581 16188 4583 2229 13050 
16405 15602 11415 3154 16442 4154 11726 9603 4877 
12327 7908 10802 14604 16267 816 12129 13883 6039 
14839 3151 1391 10368 487 6386 3239 10594 16035 
12455 5272 5749 15093 8170 7206 13863 6144 10500 
1240 12338 2169 7116 2849 1704 14564 7520 1127 
6581 12837 16902 16298 13559 11568 385 990 7203 
17408 7058 13586 12210 11696 1356 16114 11518 7599 
11612 15132 6603 12833 2625 6854 6639 7922 2446 
3620 7090 11652 10942 10327 9253 2176 3226 5992 
8185 11423 9216 646 1281 2428 1315 2198 17499 
10592 3353 1326 14589 3643 13927 14150 15770 15285 
5868 2733 7180 5784 3352 10529 1175 7532 886 
7437 13334 12611 6888 4542 16367 16676 12528 9748 
7995 11508 12227 5980 1104 15885 9944 3783 6266 
11270 8093 11283 5310 13182 1401 17175 13398 14377 
8130 836 16273 5574 2683 8960 10463 9060 13467 
5503 9809 7309 1428 6980 117 5179 15377 17564 
1497 8728 12743 3700 1940 2262 4423 12282 9350 
17017 10690 3810 9069 16268 15572 8777 232 5033 
13097 7984 10924 5997 4880 2111 16904 10387 15565 
2044 45 4539 9426 16558 1203 8004 3778 4620 
17194 8846 8887 8934 13624 9324 13569 16406 657 
1297 14072 17508 4159 2728 9838 15449 5727 15321 
6755 5752 2382 5446 9534 15465 11185 17683 13591 
17139 15174 6536 5814 9468 8005 5358 15355 15591 
12453 2230 7028 7398 9521 17487 11823 8318 17140 
9921 5645 16086 8107 15192 17800 8701 2844 2632 
11452 13200 16914 5810 15856 1897 9074 2465 1097 
11923 11745 13 17673 10629 17202 4007 16249 16802 
6685 7127 584 17619 2949 12185 8435 2443 40 
9038 9281 1048 17113 1953 12450 1505 17493 11734 
10253 10596 9002 17084 7476 8312 1937 11389 17435 
15195 16576 1770 15487 11661 13203 4970 14751 8979 
14407 4018 3462 673 13267 12040 362 122 8532 
1545 3372 6773 4748 4174 14985 7784 17363 11862 
5388 11670 5279 8717 8502 9252 11184 9613 14120 
14541 8121 433 158 10674 15052 12768 17459 1982 
644 6038 6459 814 1829 16430 5105 13890 13219 
16117 4917 11583 13937 1773 10679 9016 4888 2336 
9704 4955 5638 15508 13298 6670 17323 7659 17820 
883 15307 8120 7069 12779 1331 2471 5069 4225 
15255 353 8015 11469 16390 7240 10965 12480 9259 
7613 2686 9837 3361 11211 13728 12468 2451 8110 
15299 14891 16100 9441 11618 16963 6082 9592 17593 
14185 3550 10474 9709 5444 16809 8270 14663 5963 
10104 8826 5165 12899 13798 531 16776 1719 3599 
16998 9400 7889 3587 2502 11145 7262 3486 809 
8935 4384 8474 7952 5182 14076 11565 335 9348 
17792 11845 12951 6471 16912 4481 1774 4587 5929 
13095 7874 5452 13763 10525 17027 10401 14455 17689 
15624 17339 136 1917 15523 15960 10388 13159 9369 
4195 7573 8785 3846 3403 17223 17566 9061 17221 
3380 13466 6428 9983 9568 10249 17625 3765 2273 
6411 14116 1188 16064 13456 12970 7578 11795 16261 
10846 12708 5050 15666 4756 12041 16527 4619 14254 
589 4791 16276 17413 12021 16899 15579 11762 17262 
7072 16815 5709 13877 7193 14425 8429 6035 16478 
10460 2991 11464 10096 16183 15385 3594 11419 11678 
7740 2766 13536 1124 5159 7408 15248 8324 17680 
12888 13964 336 15407 3946 12152 16751 9048 3400 
10599 13509 12412 1856 12316 16483 9594 13750 17061 
6865 4943 3019 6853 13486 4957 2103 2461 8617 
427 16040 1848 8633 3558 15940 11710 2084 11894 
412 14148 8433 4909 4396 611 12610 10147 7686 
5704 10297 7697 12086 4290 3912 15155 10379 14280 
17361 10407 14371 16251 2450 9705 11361 155 10186 
14065 13406 8084 15507 13525 12967 17568 16161 15668 
9378 9319 2621 4890 9751 7149 12741 15147 11668 
7339 12519 14558 2486 6199 11124 17325 808 11180 
8339 14497 1372 3402 17672 7361 13216 8994 5957 
16863 7005 5536 9939 7677 9915 1362 11608 14538 
6394 2617 8017 862 16971 4264 16437 54 12102 
3493 15090 509 11538 15017 17650 14161 8042 2456 
6870 16162 6327 3988 11560 4897 2453 7814 4052 
7531 14098 9591 1983 9291 10806 14410 1972 12933 
5989 6916 14395 11244 17475 10037 17268 9059 4518 
8343 14361 4953 2369 6615 35 16886 2746 10215 
15335 10287 8259 16922 1024 12549 5513 11881 16216 
7775 11013 12607 13379 15909 17034 4015 3044 2325 
9792 10427 843 17026 14240 13016 1134 8050 16099 
6190 10601 9356 15648 8622 11850 15283 512 11931 