# vtk DataFile Version 5.1
Generated by LIGGGHTS
ASCII
DATASET POLYDATA
POINTS 17850 float
-0.000497201 -0.00669018 0.00238001 0.00273592 -0.00552614 0.00201069 -0.016306 -0.000626071 0.00199633 
-0.0231976 0.00247115 0.00195697 0.0210708 0.00648464 0.00223971 -0.000964312 0.0120785 0.0020136 
0.00224606 0.0146486 0.00225584 -0.00180782 0.0149632 0.00232657 -0.000261063 0.01459 0.0023822 
0.0102327 0.0161232 0.00228818 -0.00398521 0.0172064 0.0020457 0.0118382 0.017302 0.00228673 
0.00944177 0.0184918 0.00237872 0.0115584 0.0198727 0.00224589 0.0159986 0.0246645 0.00190444 
0.013859 -0.0239064 0.00235114 0.0169708 -0.0226623 0.0023048 0.0145479 -0.0180625 0.00205882 
-0.0193019 -0.0183074 0.00202469 -0.0192862 -0.0168743 0.00178379 0.0205596 -0.0170963 0.00275386 
-0.0192131 -0.0135207 0.00194458 -0.0158372 -0.013581 0.00180132 0.0202529 -0.0154641 0.00270816 
-0.0217001 -0.012982 0.00224042 -0.0175565 -0.012023 0.00187151 0.0165456 -0.0121983 0.00181172 
0.0197971 -0.0122403 0.00189349 0.015764 -0.0110922 0.00223391 0.0191791 -0.0107247 0.00217476 
-0.0132854 -0.0103641 0.00195873 -0.000238082 -0.0090391 0.00181905 0.0166572 -0.00856552 0.00181144 
-0.0158151 -0.00672629 0.0022397 -0.000648716 -0.00799253 0.001981 0.00139421 -0.00828206 0.00230968 
0.000806833 -0.0070064 0.00225661 0.0148611 -0.00675429 0.00183091 -0.0284403 -0.0066808 0.00256432 
0.00088662 -0.00571581 0.00217667 0.00237994 -0.00742496 0.00239201 0.00384272 -0.00539057 0.00208188 
-0.00883126 -0.00629143 0.00205193 -0.00247127 -0.00551949 0.00206345 -0.00277509 -0.00421331 0.00217426 
0.000692822 -0.00455854 0.00191098 0.00175684 -0.00509225 0.00217056 0.00279215 -0.00443267 0.00195804 
-0.0244295 -0.00392352 0.0021019 -0.0115146 -0.00467747 0.00181649 -0.0070272 -0.00434281 0.00219207 
-0.00392283 -0.00379277 0.00204172 0.0022156 -0.00335402 0.001959 -0.00545326 -0.00275554 0.00178229 
-0.003705 -0.0023176 0.00205337 -0.00247479 -0.00243962 0.00220827 -0.00074259 -0.00209732 0.0021651 
-0.00656846 -0.00259948 0.00203146 -0.0131361 -0.00251009 0.00200362 -0.00254239 -0.000191136 0.00208146 
0.0108716 -0.00193655 0.00200605 0.00706408 -0.000946323 0.00209134 0.00893179 -0.000958925 0.00207417 
0.0275119 0.000574344 0.00227198 -0.0194835 0.000198076 0.00207019 -0.0148026 0.0012456 0.00193704 
0.0125003 0.00150094 0.00218864 0.0101142 0.0019454 0.00228419 -0.0198059 0.00283586 0.00188634 
0.00676442 0.00332206 0.00196613 -0.0292564 0.00282721 0.00257126 0.00947844 0.00300102 0.00234512 
0.0235473 0.00326031 0.00195819 -0.0272861 0.00323337 0.00183696 0.00978461 0.00491368 0.00221648 
0.0109433 0.0050162 0.00235577 0.0200799 0.00414569 0.00209692 0.0217941 0.00476044 0.00211931 
-0.0288038 0.00597564 0.00229563 0.0103646 0.00595697 0.00235863 0.0248925 0.00529049 0.00184448 
0.0104111 0.00819632 0.00217053 0.0191411 0.00854507 0.00190763 0.0216437 0.0095565 0.00203772 
0.0123453 0.010177 0.00201687 0.000210497 0.0115576 0.00203941 0.0261493 0.0107884 0.00210365 
0.00248302 0.0126544 0.00233348 0.0117606 0.0117353 0.00212467 0.0255781 0.011933 0.00185835 
-0.000381462 0.0130218 0.00218109 0.00296748 0.0135957 0.0024175 -0.00681325 0.014445 0.00207081 
-0.00531186 0.0141533 0.00191017 -0.00230188 0.0128629 0.00227324 -0.00138249 0.0138346 0.00210096 
0.00824218 0.0141361 0.00256915 0.0135774 0.0131021 0.002031 0.0260199 0.0136127 0.00195808 
-0.00303698 0.0148596 0.0022901 0.000767902 0.0152006 0.00242384 0.0090768 0.0150521 0.00246508 
0.0108691 0.0138024 0.00221824 -0.00303157 0.0166337 0.0022064 -0.00124455 0.0159355 0.0026303 
0.0010304 0.0163608 0.00254423 0.00724345 0.0155352 0.00248106 0.0113086 0.015564 0.0023267 
-0.0247024 0.0159187 0.00193353 0.00304401 0.0159647 0.00241434 0.00388352 0.0172263 0.00222162 
0.00618404 0.0164184 0.00230074 0.00846626 0.017586 0.00241148 0.00878304 0.0165897 0.00228759 
0.00136375 0.0191576 0.00238535 0.00604047 0.0182879 0.002427 0.0103354 0.0190173 0.00226736 
0.0163589 0.0183136 0.00231698 -0.0149338 0.0195286 0.00214437 0.00353008 0.0188706 0.00233856 
0.0118914 0.0186515 0.00224588 -0.0188993 0.0194779 0.00181677 0.00863322 0.0207774 0.00214484 
-0.0106025 0.0201284 0.00211199 -0.00951016 0.020289 0.00216092 0.00650811 0.0205938 0.00210331 
0.0140139 0.0206384 0.00197667 -0.00521124 0.0225947 0.00205523 -0.003111 0.0217903 0.00234031 
-0.0191965 0.0223322 0.00193226 -0.00974665 0.0216815 0.00213729 -0.00862695 0.0219513 0.00228354 
-0.0178421 0.0232991 0.0021025 -0.0151331 0.0229971 0.00196299 -0.00838996 0.0230764 0.00227623 
-0.0117442 0.0256818 0.00214864 -0.00854869 0.0247915 0.00230285 -0.0130842 0.0249953 0.00178188 
-0.0109444 0.0272074 0.00234435 -0.00884178 0.0262933 0.00210771 -0.0119805 0.0268496 0.00210521 
-0.00736245 0.0278494 0.00217377 -7.27489e-05 -0.0287814 0.00265672 0.000502793 -0.026828 0.00238288 
-0.000635914 -0.0253929 0.00189245 0.0156744 -0.0244305 0.0024106 0.000150009 -0.0232091 0.00332853 
0.0180425 -0.0231895 0.00208994 0.0188899 -0.0225417 0.00204779 0.0183412 -0.0197007 0.00193961 
0.0136163 -0.0208222 0.00202301 0.0197063 -0.0187597 0.00243474 0.0136788 -0.0194502 0.00194074 
-0.0235256 -0.016821 0.00188103 0.0134776 -0.017698 0.00235218 -0.0239591 -0.0158075 0.00196551 
-0.0179182 -0.0171553 0.00221824 0.0144565 -0.0169957 0.00195153 -0.0216682 -0.0164816 0.00195943 
-0.0208421 -0.0152584 0.00198774 -0.0196355 -0.0149211 0.00193358 -0.0231782 -0.0150208 0.00199906 
-0.0182003 -0.013918 0.0018922 -0.0139085 -0.0152116 0.0017031 0.0147164 -0.0147965 0.00221445 
-0.0217429 -0.0142089 0.00219082 -0.0171648 -0.0133244 0.00205813 -0.0105094 -0.0132509 0.00204638 
0.0162714 -0.0146579 0.00206012 -0.0182601 -0.0129424 0.00237841 -0.0115059 -0.0128165 0.00254958 
0.0193857 -0.0141756 0.00237012 -0.026215 -0.0132583 0.00174171 -0.0205981 -0.013101 0.00216253 
-0.0189637 -0.0119157 0.00183687 -0.0145019 -0.0123185 0.00202617 -0.0240805 -0.0107406 0.00169198 
-0.0206937 -0.010802 0.00194985 -0.0120268 -0.0113313 0.00215188 -0.0134689 -0.011533 0.00207603 
0.00570938 -0.0110871 0.00273855 -0.0264705 -0.0103623 0.00192159 -0.0220937 -0.00934345 0.00168028 
0.00278184 -0.0117827 0.00206859 0.0143498 -0.0108891 0.00194659 0.00471291 -0.0104486 0.00278384 
0.0129029 -0.00963488 0.00223422 0.0151204 -0.00886627 0.00226649 0.0169228 -0.00979631 0.00218909 
-0.0219091 -0.00867165 0.00292092 -0.0129926 -0.00933864 0.00186723 0.00788187 -0.00893172 0.002058 
0.0142447 -0.00813977 0.00214786 0.0182274 -0.00933966 0.00211171 -0.0191818 -0.00719133 0.00224785 
0.00411428 -0.00873746 0.00214031 -0.0221435 -0.00770256 0.00230487 -0.0146093 -0.00736517 0.00211178 
-0.0020591 -0.00830475 0.00219867 0.0124495 -0.00738267 0.00174019 -0.0253819 -0.00599447 0.00218846 
-0.0137301 -0.00637939 0.00181419 -0.00910737 -0.00740945 0.00181128 -0.00604444 -0.00728005 0.00204311 
-0.00292389 -0.00741067 0.00226495 0.00344086 -0.00775448 0.00207245 -0.0112697 -0.00625642 0.00183195 
-0.00782236 -0.0063976 0.00251646 -0.00454636 -0.00589065 0.00216306 0.0254795 -0.00602614 0.00193062 
-0.0102829 -0.00536406 0.00210642 -0.00796952 -0.00553792 0.0018869 -0.00600435 -0.00604879 0.00202449 
-0.00371718 -0.00488574 0.00210724 -0.00128067 -0.00539168 0.0020326 0.00496177 -0.00500914 0.0021485 
-0.022856 -0.00449052 0.00218675 -0.00609118 -0.0046664 0.00171865 0.027578 -0.00351536 0.00230119 
0.0290758 -0.00373153 0.00248042 -0.0176522 -0.0049743 0.00252278 -0.0104881 -0.00377518 0.00245426 
-0.0081377 -0.00410694 0.00210583 -0.00174327 -0.00391677 0.00226292 0.00355947 -0.00372463 0.00196099 
0.0205834 -0.00415492 0.00172953 0.0237791 -0.00485497 0.00177509 0.0291624 -0.00277052 0.00187216 
-0.0119719 -0.00305189 0.00210523 -0.0108433 -0.00258929 0.0021257 -0.00114905 -0.00304245 0.0027467 
0.0041488 -0.00283769 0.00206814 0.00621651 -0.00316187 0.00197004 0.0226947 -0.00276269 0.00177292 
0.0238949 -0.00292793 0.00190246 0.0252418 -0.00320961 0.00203956 -0.00940482 -0.00251639 0.00209869 
-0.00776023 -0.00261437 0.00229372 -0.00484903 -0.00206338 0.00234902 0.00044649 -0.00239044 0.00211693 
0.00209343 -0.00203323 0.00211844 0.0251627 -0.00209626 0.00197989 0.02757 -0.00188816 0.00190692 
-0.0112244 -0.00103052 0.00203749 -0.0094104 -0.0013094 0.00179853 -0.00823839 -0.00162972 0.00212231 
-0.00530406 -0.000982461 0.00230943 -0.00422164 -0.00117959 0.00210426 -0.000614244 -0.000997692 0.00222402 
0.000806015 -0.000831736 0.00203472 0.00306831 -0.00127888 0.00209898 0.00460095 -0.0016442 0.00219105 
0.00683106 -0.00207841 0.00223763 0.021227 -0.00157436 0.00188069 0.0245276 -0.00114789 0.00175135 
-0.0173243 -0.00254214 0.00181281 -0.0156856 -0.00163949 0.00189088 -0.0146602 -0.00125575 0.00257901 
-0.00717927 -0.000684182 0.00203713 -0.0059699 1.36527e-05 0.00204007 -0.00462508 0.000327677 0.00214786 
0.0130338 -0.000406472 0.00199398 0.0144502 -0.000490134 0.00184367 -0.0196862 -0.00158867 0.00171191 
-0.0116383 5.78087e-05 0.00188429 -0.00142867 0.00159336 0.00187348 -0.000440496 0.000593457 0.00189891 
0.00217597 0.000593654 0.00218216 0.00415593 -0.000511275 0.00188559 0.013777 0.000447307 0.00225641 
0.0173002 0.000489532 0.00203072 -0.0244168 -0.00278091 0.00267883 0.00445106 0.00128176 0.00216292 
0.00670956 0.000935174 0.00228176 0.00835006 0.00103654 0.00228572 0.0116427 -1.44655e-05 0.00212246 
0.0184043 0.000561614 0.00194911 0.0225053 0.000954463 0.00194176 -0.0257668 0.000886196 0.00212792 
-0.0158118 0.000813122 0.00187047 0.00559163 0.00142783 0.00233828 0.00752587 0.00170932 0.00246396 
0.0107617 0.000970636 0.0019664 0.0217595 0.00169393 0.00188046 0.0274264 0.00312567 0.00292101 
-0.026713 0.0019015 0.00211707 -0.0227885 0.00140364 0.00182347 -0.0195817 0.00152002 0.00270947 
-0.0184864 0.000717975 0.00223601 0.00355769 0.00258202 0.00226812 0.00572 0.00271405 0.00223487 
0.00762561 0.00267808 0.00212727 0.00886651 0.00194962 0.00225531 0.0116195 0.00241962 0.00234906 
0.0132201 0.00250432 0.00209666 0.0149885 0.00274899 0.00205948 0.0208689 0.00266707 0.00200625 
[...]
POINT_DATA 17850
FIELD FieldData 6
id 1 17850 int
9166 11080 2470 4061 17246 6455 7395 2832 16173 
7981 12081 8968 16660 12003 4081 17218 6709 13898 
17045 12950 17478 17647 5856 13416 16720 11411 9681 
11396 14548 4937 10553 10564 15503 12471 15165 14118 
12938 4325 938 874 13031 15885 8917 9077 17011 
14045 15277 16544 11684 13113 16301 3146 14337 6603 
14572 9303 14728 7616 15414 13519 16683 2119 17645 
16111 16017 1888 9756 4817 9503 10467 3361 4082 
11338 930 10793 131 228 8070 4723 6626 4408 
6712 11895 16674 4513 2639 8456 6744 17836 4821 
13428 3660 5271 855 1652 4822 13343 9555 2662 
3234 9061 7241 3289 1013 11368 16632 1209 2756 
10571 7577 10306 4926 17505 6663 13827 14736 17600 
16344 7956 11742 9199 6151 14906 6743 3670 7228 
6237 7835 6891 17687 1959 4771 5972 6578 10262 
16829 15163 1017 7575 9991 5428 3741 7428 11435 
9490 10336 11927 11926 16583 16424 9484 8595 13507 
15172 17354 9767 12787 12716 14133 15073 3040 15007 
17695 13674 9648 10614 14042 11242 10735 8967 8344 
17387 15175 8353 7989 15485 15908 16597 10612 11024 
13734 11959 8616 9695 9632 1808 2651 12010 16901 
5690 11577 17356 5055 7112 13270 13565 14447 1940 
8652 2383 3186 6587 5929 6004 10291 16818 2540 
11910 12605 10260 13178 5295 7157 5065 8851 12853 
15140 6153 10993 11292 10559 9703 4201 12006 17598 
15601 16026 2050 10435 8023 3750 14964 13211 4161 
195 9895 9029 3402 17323 14120 3517 6219 14825 
7455 11861 5042 9898 10114 5898 10359 8036 8192 
11433 16254 12365 9031 11580 11855 14485 575 8087 
9139 8314 5778 2433 12546 6080 11185 2404 9013 
3329 6155 4407 8846 16245 7650 16693 16808 5915 
17389 2171 6851 8401 12185 6672 6274 12008 562 
1722 11253 4040 17078 6563 9575 9989 9197 6336 
9790 12303 2237 8577 12922 15947 4621 9409 10388 
1577 5859 19 6368 7192 2668 17632 1650 9208 
11117 13770 17047 8121 17328 9667 7920 12314 4517 
7741 1831 1966 8427 1644 12635 8528 1128 12288 
8843 10357 5307 16605 4953 5655 10655 5705 6598 
7012 2371 17540 12425 454 1359 11162 326 17580 
8553 9011 5616 2308 941 14758 1019 17438 3349 
15864 7211 5191 1981 9623 7755 12608 15943 1250 
14 10797 11839 8294 12319 7567 13064 6814 5348 
16919 10722 3383 4930 3792 12372 13174 14272 14303 
11367 12767 9162 1350 14965 10515 16327 9471 13138 
15463 4570 12021 14968 1513 10963 302 9953 2051 
4100 2325 15957 4794 1148 14981 1440 17528 10759 
4762 15381 13378 5214 3506 3864 10039 9079 9378 
3520 7899 3377 17054 16643 12732 9312 15456 8335 
4114 12914 16049 13920 13879 17163 5311 4628 343 
2640 11098 14097 10980 11407 2128 3798 12730 9804 
14204 2993 1245 3371 5273 16228 17270 15702 15045 
16004 14716 11980 10059 13276 2193 6454 12475 11140 
16971 11547 15234 6734 17026 16811 15759 682 10909 
1052 4058 6905 15776 10524 4396 9698 11983 16610 
3509 13169 4818 15278 15801 14070 9512 15680 10544 
4298 1495 7542 10130 11727 2937 13907 10756 9463 
15926 10593 12785 206 14132 14512 7897 9557 115 
9192 17728 8555 3639 5867 1954 266 9143 12465 
3709 9072 4094 14552 9862 8482 6538 4894 10898 
463 2022 810 3363 4614 5480 5484 5498 3314 
9180 14389 6727 10281 6301 1438 9820 1014 8954 
15570 10845 1070 4474 15193 15134 13096 7269 4429 
9927 17165 3097 16018 1000 351 6242 10365 16385 
16686 15216 7085 14121 3424 11177 13050 16888 13782 
10798 16965 15997 14661 16680 15085 6401 17152 13867 
14000 12807 17176 14103 4361 11476 10947 14890 11375 
17805 13430 16142 12858 2028 13161 16087 7385 14020 
12035 5061 12905 17760 11273 9979 11647 14650 12771 
10168 15538 8541 2958 16180 17611 16154 17021 5883 
2009 8212 16289 13990 11951 3781 16354 6858 7533 
8415 3919 10211 9913 187 8957 10896 803 17226 
2791 6177 10673 17682 9921 725 15704 13293 10419 
867 13366 3344 12297 1467 8011 5623 12847 14297 
2062 5879 11975 14058 577 1607 11662 5568 11330 
3147 6291 7036 7911 7681 280 14176 14327 17380 
12421 7978 6540 9103 16992 16224 11410 17134 12961 
14472 1718 4748 12352 9381 16008 17036 2019 14843 
8104 15139 552 4098 16204 12345 4476 14046 16103 
13588 11574 4742 12070 1763 1343 13575 3589 5269 
11527 1303 2513 3262 15050 13589 14873 1083 3285 
15293 1943 10423 6320 8635 16491 4955 8092 12364 
14504 4596 12282 8829 3895 9547 9510 17247 15788 
10040 17838 6483 17474 16748 11654 11695 5249 14897 
15526 15944 2922 4491 15166 11675 7590 10642 4465 
1800 7675 16484 10525 8461 8791 7472 9063 13780 
10237 12124 15224 10551 8767 6015 2708 7361 1002 
4582 13552 12373 3458 8502 9830 3880 8215 11903 
3524 15377 6737 3775 15636 9225 8469 17673 13510 
17174 7242 7947 9339 13 12195 8133 16359 9017 
15826 2738 9570 12802 12978 1756 17103 3727 13545 
7624 16152 5800 2293 15706 13123 17451 4684 11667 
13804 9855 4266 346 16854 13014 15658 16508 8800 
15164 3051 5671 2385 17523 17583 2836 5440 7849 
5421 17282 15848 10272 12804 11071 11817 10652 14343 
3663 16430 12235 7579 6306 16955 5524 7814 15241 
8254 11526 7195 12233 4986 5290 8854 16208 798 
17668 14269 3839 5497 15812 3235 14347 5438 4007 
9907 17172 17744 17144 2620 4624 17018 12756 9500 
1106 15418 10214 14181 17167 16197 10833 9799 9071 
272 14842 1394 16281 9579 13186 8705 16718 5926 
6082 8139 9892 7673 2266 12507 10073 3700 6882 
5948 10865 15209 1292 198 11757 6754 3534 7984 
16728 961 7643 2296 16238 12567 12677 9803 5254 
4607 11661 8397 7487 3688 4761 4944 17322 5984 
8522 6088 12078 2983 10979 15637 2752 10875 9707 
8650 2658 8033 11618 11153 14266 17623 10459 9429 
9805 15003 16080 4503 2246 2862 16882 10772 12142 
17397 12188 10569 9732 1031 212 4578 17264 6350 
9850 16948 17406 11607 12016 7323 9111 2271 1105 
8984 3037 9827 7230 17769 5587 532 13151 7436 
9399 9507 8560 14502 9348 8435 16206 8804 4324 
3167 3542 11989 1261 3954 15510 9505 7411 8284 
5373 17733 14009 4120 13810 4049 1411 16630 1802 
1239 1259 14309 6974 17569 4827 11796 16515 14434 
12579 12492 9171 15339 17417 1914 12339 17721 14975 
3698 7221 2421 2745 3874 9398 4486 1334 6126 
13480 12740 2226 11659 16641 10590 11393 7334 8111 
13361 17604 4014 9506 13894 16030 3380 12925 800 
1832 11474 1626 7356 1066 10163 17469 15581 16945 
15201 7081 17243 14395 4826 8620 8328 8566 2928 
11076 12578 12671 1983 7355 905 15564 4680 12839 
14310 12261 8418 17238 661 4923 11217 16433 7914 
16185 2982 4329 9362 14997 14732 7143 14675 15331 
15147 10580 13764 9772 15194 6413 10666 13531 9464 
9966 16714 8013 4766 6049 9997 10640 5606 8297 
15967 9816 16083 15806 16705 7774 16908 14380 8068 
14350 8332 3618 664 16804 10684 16838 3701 17789 
6991 8596 10789 11192 16540 8408 16868 10055 4678 
12728 16915 3287 2840 10436 1976 16510 14505 13003 
9545 8274 1156 12018 2586 3321 5670 14064 8112 
1170 11443 8894 14518 14148 5787 12827 17324 13632 
1009 3014 14697 16695 998 10484 8694 15937 13992 
9112 6184 4248 17373 7641 3961 7329 7687 16947 
16946 8720 7800 4902 14765 8162 15662 8409 1824 
8069 9833 10704 14786 13561 13153 15064 12203 11791 
17330 4618 6514 11641 6782 7499 15382 5806 12664 
10820 10382 10476 12616 17766 3263 17219 8618 12464 
12322 12395 8169 1918 7996 4918 8547 10535 299 
2239 13198 8 6354 2352 8637 3022 10929 16155 
12751 6067 566 10757 5043 5389 6513 3165 12584 
15328 10565 14988 4616 6686 3676 13587 5367 2536 
6649 107 652 5959 5200 6348 6231 6589 4230 
7498 8770 923 6629 4552 7921 2505 5445 11187 
2797 1354 2251 12113 6451 8370 4769 1076 2824 
8466 2416 10887 15098 2178 6365 11772 8908 1933 
10202 816 17778 4485 5305 2534 8887 339 6566 
1923 4215 14319 5100 15347 1041 6097 96 3048 
8047 11553 2159 4062 13368 3543 14048 4377 12630 
11552 11576 6325 11976 473 14689 8336 8447 5327 
15405 4252 10425 12226 12267 4458 10396 4845 3935 
8364 11298 13203 12878 9677 5274 242 6392 7169 
9003 10020 5380 15913 7061 179 10533 9216 4196 
5409 8899 6977 14430 3140 8096 9253 5368 12264 
10413 11572 1045 16383 13643 8877 7465 2265 1860 
10848 16778 10927 12214 17302 8718 15936 12977 13800 
2201 7181 595 5276 13024 17640 1968 10102 8934 
8980 5157 63 13157 13218 9628 3767 5115 8000 
11043 298 8197 15395 1180 5417 15430 8155 2327 
823 14568 7265 8583 2065 8136 13752 13235 7678 
3239 7949 9105 16560 11653 16226 9661 9658 17755 
15489 16377 12332 17447 4025 5097 4070 5542 11115 
6366 8775 8360 625 14616 16157 16019 12942 12047 
6380 9271 2354 16745 11173 10493 11421 8659 16545 
17310 5170 6363 14649 4966 4218 5181 3305 3844 
4370 17331 10532 12533 14163 13968 9841 300 9526 
9616 7312 1707 16877 14006 16420 4381 15578 6674 
14317 14573 11380 12190 5801 1247 16458 14109 15065 
17390 5291 11915 14125 14224 401 10305 14717 13523 
16765 6573 1995 10729 4402 16700 11068 13699 1392 
5791 6 13350 14752 3447 13560 12193 15660 11116 
4744 16032 6488 12502 11549 2520 10389 4348 4676 
13716 17427 16394 17802 234 12341 12752 12594 12951 
11888 16134 7520 13852 3643 7444 12986 7392 11749 
1217 14856 11317 6011 10969 2713 1370 15691 9045 
5847 10151 7606 2780 13244 14519 14367 14200 17655 
13684 15273 1099 7893 11055 10117 3110 13447 1489 
2987 3310 10264 15028 13656 8029 15124 1708 3106 
15043 14021 3336 3257 15584 12478 11984 904 10212 
11703 5212 11686 14441 9326 11564 5143 3480 6915 
2709 4103 2805 7284 8860 15589 17456 3677 9813 
13821 1443 16466 2198 16262 13143 9334 3264 17156 
9897 14149 2686 10918 13532 16876 14597 12360 8736 
1950 11521 3142 14358 5193 8671 16193 5880 1830 
1220 12624 8876 15603 13948 7706 4180 12958 7891 
9649 10028 6471 10800 9835 9342 2011 14836 15200 
6695 2558 5003 15559 9809 2787 16747 13928 773 
15267 11867 5275 11566 9306 13195 16109 5237 5419 
7458 3744 15915 2440 11953 13677 15670 4725 15519 
12560 3255 2664 7394 3785 12074 7231 11705 15054 
690 1104 17708 11357 4073 14431 13104 12796 14340 
606 17164 7770 7644 10335 7701 5610 12935 5660 
1331 8208 8114 13271 6105 1801 15214 13670 14834 
11009 10745 15198 2510 7534 14989 13776 3778 7763 
12244 16389 15938 2608 9254 11042 11612 11587 16953 
11087 9954 12786 1131 2472 8161 15672 16213 3009 
2059 5317 14079 9160 14549 8725 12401 7332 780 
9300 6973 17157 13504 12768 16082 12413 9873 11578 
16581 2818 15615 9859 106 15322 9218 5222 5211 
9651 10537 9669 15352 11190 913 11184 14208 633 
983 16753 13471 11293 2233 15843 3940 11821 14539 
2723 1143 15061 5607 987 5844 17003 14287 9175 
11430 13322 4475 14775 11307 12761 10971 340 2409 
3450 9920 12992 1779 17177 5385 3737 2683 3228 
7700 14751 458 1612 14302 1152 6572 1541 5795 
1762 6698 4939 6561 14429 5933 14687 12441 5391 
8895 6111 5620 9338 1671 5702 11078 11894 5901 
9267 4504 4472 1199 10057 2120 276 10768 9563 
9220 5835 16435 4131 16614 1349 10752 6705 2820 
5199 3156 5999 1384 9070 12649 16826 1583 5178 
7154 10508 12308 6243 17688 12057 10219 7942 5346 
7055 9541 14391 125 1527 4597 12643 10325 4275 
4205 13196 5521 10635 3927 1806 6697 2913 16928 
9302 8909 11233 5064 17813 3797 2396 482 5721 
8146 185 10159 5819 872 16036 1280 1111 17556 
1759 12312 14010 13735 7926 13384 9428 15579 2337 
10494 4611 3328 5201 4080 17262 14977 9259 15077 
7407 16358 14249 2492 3469 1372 3334 5804 2719 
3325 7691 17061 14178 14250 6932 10023 7162 13403 
1196 192 11878 11715 13230 13232 7426 1904 764 
5759 17418 9080 13571 13453 10496 12640 5739 15111 
16380 3483 17000 669 2964 5991 3062 7328 13397 
4941 6499 4255 4743 15861 17667 13705 16048 10412 
16850 8048 13440 2093 6970 10786 14761 9068 14679 
13567 7101 16179 4140 3230 4467 2310 11090 10240 
10042 8434 16921 5732 12043 12735 6717 5651 11247 
369 4426 132 12002 16886 3504 12240 3417 17815 
6440 13369 9843 2940 9618 10052 10602 8432 3059 
13989 14570 8421 4443 11977 4731 564 17822 12795 
17029 14460 12426 7219 3901 10970 15314 3598 2080 
7207 2452 3790 1358 8433 14444 8451 12873 15626 
17388 11461 8873 5028 14144 7728 2566 3934 11644 
10811 13170 13940 5658 7149 570 15319 2725 13229 
10106 17726 1735 13448 14796 10926 3120 5142 6776 
16138 8768 5716 7238 4238 14468 2146 6703 5076 
84 5229 11112 6121 1825 9650 603 12064 17452 
5089 11309 1221 10601 12816 10420 16857 6032 7387 
13491 6338 13063 14335 16669 15284 14638 4471 5169 
9356 12258 11416 16681 2591 10657 12782 4561 8386 
13429 14008 14126 15025 15471 2243 7742 10184 8229 
8183 743 12307 4010 7818 11384 5471 12593 17638 
6152 16401 1901 5863 14454 1730 11922 1537 8379 
10326 11498 15648 8505 10348 10215 11611 12529 15755 
6917 12900 3731 12564 7909 3806 7500 5644 12414 
241 6678 3095 16943 8626 13433 16624 14804 14889 
16495 13645 4031 14052 9828 5049 17539 9998 10107 
5080 88 13534 12369 10294 10605 13093 12887 16675 
381 6494 17005 7881 10252 13919 180 6041 13370 
1126 10654 2482 17729 9118 11458 9128 6920 644 
9676 5247 4543 13555 5637 6718 1668 1827 10180 
5155 14054 4805 7732 10705 2772 13021 2342 16187 
10939 17554 2079 15839 15751 1861 2003 14706 12442 
1518 6606 11483 17326 660 17697 2706 9403 6260 
11403 7603 12712 3200 17306 6376 3280 848 7287 
10835 2469 16378 10491 11787 859 12049 12890 6214 
16027 6340 12432 3443 6464 7569 10972 12024 10527 
17127 15403 12968 5354 14115 12132 11488 14452 9995 
8519 13086 17082 10242 9866 1374 6611 3098 2187 
3605 13651 14180 14240 15383 17833 10996 12342 10426 
2366 1144 10144 16107 8545 7064 14936 15769 417 
4837 9268 14470 17596 2843 13396 4158 12882 4132 
2661 11961 12924 10554 13479 9825 10711 17434 15249 
862 2547 13390 6123 4314 11189 13784 15689 882 
12020 7560 9395 650 5719 2727 8287 12734 2196 
1835 13947 9919 17503 1003 2701 6254 2172 4019 
1174 1160 11398 6029 8411 13060 2066 13608 802 
2131 10688 13025 1896 2348 14684 2139 3454 2525 
419 3555 4202 6262 12439 13522 10475 1084 5022 
5735 4319 4289 628 12692 5534 3150 6893 3733 
4351 5625 5116 1078 852 3047 4566 5764 6662 
3067 3837 15698 10815 2795 3588 12555 3406 145 
5395 2018 1307 4869 17562 2883 5505 2782 4391 
1316 10477 15834 13625 4758 1639 7715 12518 4121 
6160 14273 1408 4234 6292 5138 7917 1840 2124 
8569 14324 13749 2698 6174 1938 9282 927 11558 
7254 5868 13508 1828 15878 5569 11006 10100 6907 
5487 3646 9100 14101 6309 9470 7116 3914 4977 
11803 5507 9858 8075 17329 13539 6739 7132 4764 
2089 1778 275 9477 15492 9872 5903 12427 16132 
5839 13376 11020 17168 13126 13098 11058 6168 782 
7213 7932 4477 7107 5769 7586 6815 3024 6912 
16234 14811 10953 15365 8677 8196 7629 6981 10549 
1147 5891 5134 15072 16366 11089 8224 16793 16979 
6319 10453 8334 11027 12777 17481 1478 4873 7271 
1566 1501 9885 526 14033 4816 2317 3641 2261 
7766 16118 12597 14232 7862 4767 13742 9041 1511 
3523 12588 3442 1141 3428 143 10095 3583 11741 
8568 11127 13673 14316 7338 2633 14404 15767 17193 
6757 15199 8055 15289 14991 16316 16139 627 6640 
5708 1651 8561 1805 1925 12940 13313 11645 8937 
5964 5322 5712 10901 7301 16551 17754 9310 6548 
4340 16816 8131 6971 16871 13087 15985 13326 9104 
10555 14022 16396 12561 15474 14800 9258 11930 5838 
11914 14300 9765 16655 11343 12242 15630 4154 6808 
15556 13009 7068 2946 8536 17148 16622 17420 14594 
812 7402 7955 3668 9361 9384 10014 13844 14928 
5434 9771 16028 14942 15438 1287 10889 3398 11544 
8704 5074 15427 3092 11356 8445 14100 12618 14315 
3819 14900 12821 10507 13225 16972 17817 2703 2316 
10500 124 8476 13871 16726 14673 6329 1879 14346 
10769 14384 16795 13179 11333 14976 304 9868 9170 
11456 4576 13389 17463 14641 13997 9331 8246 7908 
13683 14004 11533 11196 14055 630 14483 7727 13927 
11008 17318 13267 15023 2948 817 12532 14473 11455 
6457 14433 2598 15825 8855 14018 13895 16502 7450 
11147 6959 16539 16634 3423 6135 17608 7903 7427 
11974 10424 7717 10056 9761 17173 14258 9109 15588 
13001 13887 3623 5047 9759 7488 10013 9795 8214 
7189 991 7214 16534 15203 16715 14462 379 1528 
7031 13266 10203 8086 1947 15530 8446 8818 4836 
6056 8848 11074 13097 13228 17280 6848 14696 12897 
16924 16410 8352 9684 13482 6556 2912 6799 1025 
3226 836 6549 11534 13960 57 8236 928 17783 
12486 13490 5911 4247 11778 13974 10136 3591 883 
9370 14970 1136 5754 6794 16050 6346 490 16414 
9871 2488 10213 9693 13105 12179 1254 7226 12855 
11688 3108 13199 4502 14030 232 1736 4446 9716 
8657 1129 9819 16863 17086 13411 9730 190 5793 
13985 14254 1391 4198 7170 2784 5227 8783 2256 
2267 14188 12139 8673 16357 13046 15445 7262 17364 
12259 1997 9939 7347 6188 8959 1948 12831 8025 
4175 14815 1273 2215 9245 14377 16912 5701 3828 
8540 7516 10135 11504 8916 14274 1986 12907 16612 
6557 10469 8711 16129 16217 8619 15021 9227 16616 
6238 11732 10539 5925 1965 10497 7173 14838 390 
12101 2177 11979 4126 4653 16126 15097 17382 6333 
921 4083 10567 10289 16566 16291 432 12015 2988 
4460 2693 5794 586 7524 6547 9831 2305 17359 
11279 3780 9446 3594 5435 16558 14610 14862 4842 
10209 12642 12638 16815 5403 3298 1783 8682 13401 
12927 5753 5013 12158 13678 9367 5798 7309 14464 
5018 14810 1863 9081 17159 7837 9009 114 3020 
11819 11920 2102 6638 6658 4765 9416 2227 13709 
12284 430 11390 1296 2048 12094 3903 1741 1734 
1803 4778 7613 1531 3330 1348 7798 16744 9578 
1289 9784 16529 17170 8740 6730 4308 1285 11605 
1641 2632 10429 853 15717 10051 16779 5060 5387 
2815 14179 113 9535 12884 16810 14311 5182 3529 
2002 6501 3231 1790 2264 13737 10027 5262 17567 
384 10741 2504 10648 11060 8623 17008 16353 15958 
14879 15606 10379 11972 4454 5144 4410 12604 5414 
4729 1327 2346 11447 7784 6171 12845 1926 7514 
4051 15453 3184 2646 4237 8622 6993 868 17421 
9125 9900 5734 7973 10234 13911 4332 6117 4702 
2476 9596 2578 13558 7726 2992 2887 5905 9728 
11062 3578 11034 15443 1710 16093 14093 2092 989 
7363 10328 10591 4615 6154 7971 6342 11500 11244 
17538 5533 967 2523 8554 467 13698 11442 7871 
15604 703 7367 4416 7886 2604 1662 11493 7820 
8242 12007 9847 834 11353 8529 17032 7381 1208 
7525 6693 3882 11289 3318 9937 8241 15866 15120 
10143 4009 4819 4259 11438 12535 11735 16210 10693 
3384 8489 16787 13962 3297 3376 5404 10703 11036 
4638 3970 10917 12996 17123 9569 2295 2850 5270 
5148 9453 4012 10444 11226 4969 3679 1050 6787 
13704 1529 6200 6439 13721 1955 11453 14934 17844 
9577 8685 7547 8778 1165 427 368 16039 16337 
7205 2829 7251 11295 12498 6526 17042 13766 14145 
17544 12278 5062 786 9001 4825 10224 15734 3345 
14613 4598 1930 1807 10846 4210 2732 12931 15116 
11739 11782 17784 17230 6503 4656 3521 1768 7489 
10123 8486 16085 9196 4354 4023 15851 6055 2935 
13204 8874 14734 10440 14165 8976 11691 5329 9780 
4346 12966 13596 15130 1856 6644 9529 15259 16221 
15422 814 13224 7974 1674 999 11373 3004 11392 
12901 10615 4469 778 16646 13239 3015 3482 17768 
14023 16501 722 3725 779 3722 6576 15659 14465 
17 3685 4483 893 13059 13223 8148 10378 15539 
7066 7939 12980 10047 2106 12243 10646 17101 16314 
7931 9990 14602 13339 2236 4634 7809 1257 11363 
12803 16725 3808 6381 6098 7248 4055 3073 7043 
9205 14385 3299 4938 12693 4415 15320 6579 8707 
13214 13348 10706 10587 15528 8468 5994 12380 1638 
11655 15081 16535 1357 9020 9262 13236 17753 12684 
9723 13877 14827 14289 12617 16454 10687 10201 1406 
15026 7526 14729 17407 12746 16029 17542 16961 7468 
5779 11142 17689 13638 956 15236 10191 5888 262 
920 935 960 3045 15656 14029 11756 17201 16942 
8471 6574 271 3057 11567 16842 8865 17774 9266 
15934 4480 12059 11114 5960 7339 12143 10585 2746 
15478 15973 15611 14680 6765 10011 15079 15393 9839 
12087 11326 16589 5715 917 11032 3132 2291 7135 
55 13892 12080 16831 7065 13929 17265 14599 3981 
2854 15330 14925 3971 4627 1894 5591 11774 14196 
4242 15724 11770 15123 1016 15223 15865 6334 8733 
11203 12257 10320 4156 14930 10566 10986 4841 11412 
17807 14646 14660 12146 16398 3867 4903 7225 3039 
5763 4450 2765 11656 8867 14563 15264 16514 8862 
11919 14256 16800 15837 8452 5848 10110 2081 11280 
6147 5934 13277 11049 8312 14702 7621 10034 2088 
7062 10054 9165 17126 15678 5906 15905 15366 11523 
15076 6259 14037 1911 6383 10080 10274 2842 12163 
8815 5411 4200 5198 17763 16288 16128 13055 6303 
8380 7864 8288 6668 3496 5205 17642 15978 14710 
17335 6607 10337 16061 6132 9226 9967 17119 14085 
6441 10372 10650 16450 2191 17350 6925 17519 11609 
6268 1692 7317 1655 6402 5550 616 16184 1972 
9075 14995 4951 13068 11869 9042 7331 233 3199 
10288 6679 2995 4844 3359 8299 1615 4876 3427 
8696 8552 5135 3386 2542 3339 11496 5482 4669 
14338 6567 1211 8382 2871 6887 6996 1984 16151 
1657 3748 775 146 7283 4591 511 15354 4812 