# vtk DataFile Version 5.1
Generated by LIGGGHTS
ASCII
DATASET POLYDATA
POINTS 17850 float
0.00140002 -0.00545145 0.00168106 0.0264296 -0.00417723 0.00172003 0.0260614 -0.000478119 0.00170461 
-0.0274224 0.00814482 0.00170118 -0.0255665 0.0110168 0.00174224 0.0192649 0.0209165 0.00170557 
0.0145916 0.0250435 0.00174945 0.0104079 -0.0274269 0.00169652 -0.010876 -0.026638 0.0016614 
-0.00758018 -0.0269396 0.00174828 -0.0111458 -0.0253292 0.00169965 -0.0096187 -0.0259555 0.00170662 
0.0105777 -0.0263032 0.00168906 0.0136061 -0.026036 0.0016799 -0.0139641 -0.0253282 0.00165848 
-0.00797117 -0.0244965 0.00171395 0.00606432 -0.0257817 0.00194036 0.0125316 -0.024769 0.00167712 
0.0136864 -0.0248761 0.00174746 0.0154428 -0.0250399 0.00166992 -0.0159738 -0.0247561 0.00167103 
-0.0130403 -0.0247875 0.00169103 0.0162988 -0.0238162 0.00164706 -0.0109867 -0.0242602 0.00166791 
-0.0101143 -0.0236222 0.00169034 -0.00439613 -0.0240668 0.00173414 -0.00281351 -0.0245181 0.00218346 
0.011266 -0.024379 0.00170636 0.0141651 -0.0237361 0.00171004 -0.0158978 -0.0236922 0.00168477 
-0.0134839 -0.0236023 0.00173002 -0.0120797 -0.0242006 0.00179968 -0.0110141 -0.0227617 0.00167216 
-0.00571844 -0.0227882 0.00171601 0.0103905 -0.0236325 0.00171439 0.0126828 -0.0229467 0.00168668 
-0.0164467 -0.0227185 0.00187294 -0.014985 -0.0230963 0.00169025 -0.00937864 -0.0222146 0.00169035 
-0.00739998 -0.0219279 0.00170012 -0.0103821 -0.0217559 0.00168734 0.0192167 -0.0212018 0.00170259 
-0.0155735 -0.0218636 0.00170997 0.0102758 -0.0201711 0.00169974 -0.0174991 -0.0205322 0.00169254 
-0.015944 -0.0206918 0.00167714 -0.00915994 -0.0205003 0.00168174 0.0117009 -0.0195218 0.00170914 
0.0147898 -0.0200823 0.00164753 0.0191619 -0.020123 0.00166932 0.0212009 -0.0203636 0.00165785 
-0.013858 -0.0192908 0.00175273 0.013875 -0.019517 0.00170729 0.0157018 -0.0188639 0.00170128 
-0.0165781 -0.018685 0.00171131 0.0183573 -0.0189693 0.00168599 0.0159716 -0.0177128 0.00170574 
0.0173395 -0.0185398 0.00173041 0.0189506 -0.0180403 0.00164391 0.0117869 -0.0163425 0.00165136 
0.0150594 -0.0162129 0.0017071 0.0163238 -0.0166326 0.00171641 0.020563 -0.0166947 0.0016998 
-0.0224273 -0.0161421 0.00203165 0.0218467 -0.0164457 0.00169993 -0.0242402 -0.0146472 0.00170099 
-0.0186435 -0.0146538 0.00167616 0.0107016 -0.0147403 0.00164549 0.0238703 -0.0148232 0.00183367 
-0.0208562 -0.0143677 0.00177582 0.0133173 -0.0140863 0.00173693 0.0202417 -0.0143299 0.00166115 
-0.0228751 -0.0138182 0.00166299 -0.0218366 -0.0138872 0.00182002 0.00878017 -0.0130485 0.00168382 
0.00971012 -0.0124196 0.00168669 0.0133044 -0.0125146 0.00167701 0.018626 -0.0130229 0.00165127 
0.0191465 -0.0140093 0.00173717 -0.0235241 -0.0127447 0.00171652 0.00666735 -0.0120862 0.00167101 
0.0106511 -0.0129052 0.00172614 0.01236 -0.0131644 0.00167436 -0.024821 -0.0117337 0.00170664 
-0.0236662 -0.0110662 0.00166383 0.01544 -0.0125563 0.00173387 0.0163041 -0.0118422 0.00167842 
0.017973 -0.012136 0.0017195 0.0210737 -0.0119808 0.00166625 -0.0255478 -0.0108681 0.00169071 
-0.0177018 -0.0120185 0.00165282 0.00860809 -0.0103429 0.00171611 0.0150557 -0.0103285 0.00169208 
-0.0172185 -0.00994292 0.00170318 0.000661215 -0.00970905 0.00177131 0.00515671 -0.00958114 0.00186055 
0.011676 -0.00979119 0.00167163 0.0166604 -0.00886206 0.00169159 0.0186755 -0.00891004 0.00167676 
-0.0273182 -0.00777186 0.0017258 0.00900259 -0.00777247 0.00175589 0.0279522 -0.00904953 0.00166968 
-0.0265537 -0.00678732 0.00167015 -0.0231551 -0.0066534 0.00170207 -0.0196714 -0.00731273 0.0016555 
0.0101049 -0.00755708 0.00182925 0.0273494 -0.00817752 0.00201056 -0.0262334 -0.00552356 0.00182767 
-0.0215434 -0.00684333 0.00165704 -0.0140366 -0.00668143 0.00174477 -0.011241 -0.00716816 0.00167594 
0.00616228 -0.00388555 0.00314831 0.0141657 -0.00699476 0.0017128 0.0244729 -0.00709454 0.00167229 
0.0264246 -0.00750126 0.00174064 -0.0281244 -0.00525248 0.00167706 0.0231473 -0.00590298 0.00168451 
0.0252194 -0.0063204 0.00167886 0.0272258 -0.00607432 0.00184048 0.0283558 -0.00627152 0.00177288 
-0.0199402 -0.00561052 0.00167312 -0.00381438 -0.00382713 0.00177543 0.000670543 -0.00459632 0.00183267 
0.0124347 -0.0050681 0.00170853 0.0242327 -0.00591369 0.00179722 0.0213487 -0.00337333 0.00165564 
0.0243489 -0.00433281 0.00167628 0.0252136 -0.00515999 0.00167305 0.0263464 -0.00527792 0.00169302 
0.0275149 -0.00470745 0.00170437 0.0289479 -0.00524099 0.00175082 -0.0276554 -0.00286345 0.00175239 
-0.0184641 -0.00383365 0.00171299 -0.0075121 -0.00300906 0.00180055 0.0290771 -0.00358458 0.00168541 
-0.0200781 -0.00270455 0.00171015 -0.0147433 -0.00277925 0.00169159 0.0180966 -0.00293515 0.00164436 
-0.0217749 -0.0019776 0.00186491 -0.0194338 -0.0018229 0.00168697 -0.0077128 -0.0013149 0.00170397 
0.0120994 -0.00244991 0.00170805 0.0239522 -0.00183189 0.00163921 0.0249293 -0.0021909 0.0016686 
0.0275942 -0.00160969 0.00168666 0.0292499 -0.00249964 0.00176123 -0.0106179 -0.00155209 0.00167818 
0.0249387 -0.000369905 0.00170142 0.0285252 -0.0010586 0.00169429 -0.028554 -0.000797605 0.0020777 
-0.020631 -0.000362237 0.00173055 -0.0180138 -0.000702897 0.00168603 -0.0133926 -0.00111232 0.00168405 
-0.00608356 0.000483107 0.00169914 -0.00230667 -0.0001193 0.00177865 0.0123372 -0.00123513 0.00171123 
0.028038 -3.69954e-05 0.00170509 0.0293226 2.46636e-05 0.00169169 -0.0186579 0.000206198 0.00168414 
-0.016027 -0.000195396 0.00167003 -0.0085607 0.00135852 0.00168701 -0.00473931 0.00012957 0.00175469 
0.0241382 0.000612242 0.00168135 -0.0131786 0.000273725 0.00168325 0.0272926 0.000797151 0.00168082 
0.0293572 0.00136812 0.00164933 -0.0196275 0.00187731 0.0017563 -0.0181982 0.00119336 0.00176105 
-0.0159421 0.000905101 0.00170929 -0.00607323 0.00168778 0.00176697 -0.0017592 0.00142599 0.00203491 
-0.0161845 0.00264912 0.00166966 0.0141029 0.00236021 0.00173422 -0.0197021 0.00308275 0.00168591 
-0.0176281 0.00313918 0.00168982 -0.0146474 0.00265574 0.00164574 -0.0283918 0.00379017 0.00170196 
-0.0268911 0.00272775 0.00164756 -0.0180866 0.00440944 0.00164922 -0.0169379 0.00402337 0.00171143 
-0.015121 0.00388658 0.00165072 -0.00919858 0.00473343 0.00171807 0.0249927 0.00387588 0.00167158 
-0.0286097 0.00582403 0.00172466 -0.0246643 0.00447174 0.00170682 -0.015928 0.00503038 0.00167994 
-0.0141668 0.00432247 0.00171188 -0.0204752 0.0046883 0.00168666 -0.0169657 0.00537482 0.00168415 
-0.0183497 0.00561632 0.00173249 -0.0132171 0.00603357 0.00167053 -0.011575 0.00647217 0.0017362 
-0.00844101 0.00602492 0.00177774 -0.00706758 0.0060154 0.00164517 0.0264719 0.00608592 0.00168168 
-0.0282898 0.00698835 0.00170896 -0.0264097 0.00615287 0.00170428 -0.0155261 0.00711249 0.00167478 
-0.012678 0.00698479 0.0017183 0.0173969 0.00699469 0.00178394 0.0184685 0.00673073 0.00165396 
-0.0165285 0.00772137 0.00166508 -0.0115733 0.00766542 0.00168715 0.0134034 0.00923738 0.00222533 
0.0154532 0.00798736 0.00171321 0.0280442 0.00832726 0.00169579 -0.0143149 0.00828557 0.00166477 
-0.0086592 0.00821898 0.00190955 0.0165692 0.00833419 0.00168874 0.0170584 0.00776023 0.00253613 
-0.0141156 0.00950869 0.00172779 -0.00297436 0.00922068 0.00227331 0.0176493 0.00805398 0.00171999 
0.0189501 0.00865136 0.00173148 0.0225025 0.00900095 0.00178357 0.0256238 0.00909857 0.00166391 
-0.0254752 0.00847186 0.00166607 -0.0214989 0.00979388 0.00166167 0.0199091 0.00931452 0.00172368 
0.0216128 0.00963412 0.00169027 0.023027 0.00990508 0.00167801 -0.0262175 0.0101694 0.00164912 
-0.0251863 0.00984996 0.00163826 -0.0204126 0.00968366 0.00167362 -0.0115395 0.00976385 0.00168131 
0.0181806 0.00950298 0.00174534 0.0205558 0.010204 0.00165411 0.0221791 0.0105767 0.00171543 
0.0254145 0.0102766 0.00181515 -0.0166561 0.0115849 0.00174857 0.0146822 0.0109164 0.0016455 
0.0184472 0.0112784 0.00167047 0.0213325 0.0114389 0.00172779 0.0231581 0.0109871 0.00164872 
-0.0267875 0.0120718 0.00166733 -0.0105473 0.0116645 0.00174528 0.0203429 0.0119715 0.00167679 
0.0268556 0.0117331 0.00171149 -0.00699727 0.0109587 0.00191111 0.012711 0.0115567 0.00171423 
0.0163484 0.0129831 0.00166654 0.0181966 0.012401 0.00170872 0.0202061 0.0130464 0.0016909 
0.0220838 0.0126001 0.00167222 0.0248898 0.0122941 0.00166291 0.0184621 0.0135881 0.00172521 
0.0212803 0.0138911 0.0017267 0.0259353 0.0124358 0.0016806 -0.0108381 0.0134119 0.00165445 
-0.00903845 0.0128615 0.00171154 -0.00777439 0.0133062 0.00167584 0.0102932 0.0141012 0.00171642 
0.0159669 0.0139435 0.00166583 0.0224302 0.0136219 0.0016667 0.0244652 0.0142637 0.00168535 
0.0254304 0.0138336 0.00169002 -0.0197183 0.0148382 0.00192233 -0.0114209 0.0143906 0.00170269 
-0.0100507 0.0151069 0.00174658 -0.00590854 0.0135892 0.00169037 0.00435268 0.0159092 0.00171716 
0.0144302 0.0146245 0.00171308 0.0168689 0.0149225 0.00176329 0.0183669 0.0152467 0.0016973 
0.0193823 0.0148822 0.00172623 0.0229228 0.0150684 0.00176384 0.0253068 0.0149338 0.00172621 
-0.00396011 0.0143241 0.00197187 0.00135488 0.0147679 0.00213509 0.0135272 0.0152519 0.0017714 
0.0206021 0.015834 0.00175708 -0.00832019 0.0161838 0.00172175 -0.00666857 0.0164417 0.00185327 
0.00844256 0.0165383 0.00168429 0.0113154 0.0164739 0.0017381 0.0134313 0.0162997 0.0016669 
0.0146361 0.0165607 0.00176955 0.0158031 0.0163466 0.00175139 0.0174927 0.0159336 0.0017426 
0.0189464 0.0164187 0.00174598 0.0219313 0.0169614 0.00169623 0.0232953 0.0162627 0.0017216 
-0.00304202 0.0164231 0.00171682 0.00319521 0.015727 0.0018081 0.00620656 0.0169778 0.00170979 
0.0195199 0.017427 0.00180516 0.0236879 0.0174608 0.00168162 -0.00768939 0.0168876 0.00226228 
-0.00569932 0.0156381 0.00176413 -0.00565703 0.0168686 0.00173876 -0.00397628 0.0170463 0.00177064 
0.00530631 0.0175746 0.00165737 0.0124026 0.0182056 0.00166568 0.0156661 0.0184361 0.0018437 
0.016884 0.0182082 0.00173073 0.0179651 0.0185238 0.00171313 0.0204822 0.0181138 0.0017405 
-0.000843178 0.0183013 0.00172228 0.0165775 0.0193566 0.00176292 0.0189185 0.0192851 0.00164862 
0.0208313 0.0192409 0.00171806 -0.009583 0.0188373 0.00165081 -0.00722554 0.0177897 0.00176482 
[...]
POINT_DATA 17850
FIELD FieldData 6
id 1 17850 int
11803 9233 9379 12189 4123 16452 13135 8892 6640 
17492 9982 13874 11421 5074 12410 16556 2005 10790 
1094 4429 11167 3544 12264 16856 9725 15711 8363 
2489 14689 15878 9553 4288 11543 4649 8933 15206 
7989 9550 15928 9448 5350 14776 3597 14561 9331 
10876 4020 2657 17377 16533 12107 14461 14744 10845 
8558 10827 8181 3338 12654 17448 2781 347 8989 
16234 17614 14799 15073 17159 7893 14843 3713 5875 
11465 16545 5413 15093 816 12073 7446 6702 16126 
12663 16267 13901 16393 13211 16567 13950 17353 526 
16933 2186 14856 6535 4365 17717 11501 16371 3623 
2063 886 10706 16273 2946 12282 13174 15766 10621 
11906 14149 10151 6363 14183 5047 13168 10424 4185 
16096 14453 7624 15555 11669 686 8284 17077 11550 
16181 12523 15718 5137 9920 12424 1830 9534 6374 
4715 11745 6498 1071 11732 8306 14615 6772 768 
10979 11607 16011 14922 5497 15736 13338 9647 16117 
11294 14766 11469 3614 4112 9806 5391 9703 17386 
15101 5937 5110 12735 2898 4770 2758 2039 12626 
4475 1723 4131 4093 17609 14983 17827 11901 2433 
6285 2619 12772 3378 2819 4791 16276 3594 10543 
1431 16630 1652 7192 877 16148 9446 5270 10254 
14690 4875 12155 11754 15940 17554 2095 15410 17093 
12479 9599 6845 7355 16920 15166 2450 6338 4535 
11403 17087 2114 9705 15662 11913 960 5430 15149 
8669 17219 15147 11668 7043 6654 6690 407 5957 
16992 1622 5721 125 13850 8068 17526 15742 15518 
11739 976 14136 8680 9657 11577 8955 11850 14246 
17528 5906 6561 3766 3207 2593 13452 5090 15831 
11461 1919 783 598 7327 8968 13460 1219 11938 
3185 13719 10512 15123 1686 5635 6947 9403 1744 
10928 6513 2495 13834 5360 9877 41 5862 1013 
4044 5155 4628 6259 17517 859 8563 9854 15284 
11012 7123 6823 6849 12370 39 5576 4865 15911 
9392 17127 12675 6985 7909 16169 11416 6043 3080 
3088 2117 11551 17443 16334 17697 2066 6051 263 
8132 15074 13053 16780 17273 17454 12890 2061 15382 
3210 2937 7264 14638 523 10397 5214 889 12864 
15169 4016 7752 4436 17436 5780 909 15157 13145 
12641 6600 8 11360 1690 1265 6614 10226 12676 
9354 16468 12765 386 10169 5826 6466 17357 12147 
2827 6130 1590 6018 1007 13409 12788 14331 11822 
3011 17648 16240 16940 3131 17244 4144 2015 6223 
6741 13077 12457 12481 5161 5903 4853 10380 4479 
13262 10718 12542 11584 4937 865 2054 3449 3696 
9941 2000 17629 4559 17366 14164 2110 12657 13393 
15852 14074 13087 16172 14974 5895 15919 17154 2473 
16431 3137 17193 12896 2735 16662 10428 16843 4752 
14807 14312 12530 1607 9794 7095 14957 14865 17486 
10124 7885 14433 13019 3291 15551 1140 7146 10727 
2759 9155 2522 17343 15966 5986 16575 16381 16884 
3375 14357 1666 10030 11654 10969 2572 2485 8063 
1725 11083 15538 15952 4490 14797 11281 13022 2096 
3566 14046 3177 17299 15430 12940 6186 17148 11717 
13661 4550 15231 9812 10006 10867 9330 8638 9193 
8819 749 8721 16157 8109 7670 6129 9578 4806 
16150 14112 5555 3829 3543 16950 14316 2097 1746 
15930 6094 1756 10142 13533 10586 12411 11425 16620 
13327 14877 15908 3201 16095 5026 1339 5542 8490 
8787 7999 8882 3744 3819 16629 3813 11375 4792 
14950 13472 9573 2648 7582 1489 15835 11904 8797 
14079 4465 1141 11831 15632 14006 7204 13143 12056 
17240 8131 7789 1420 777 3484 10933 2742 8039 
6451 4390 10271 3308 14987 16357 6319 12939 3796 
14918 5243 17206 7197 11695 2941 11460 7555 17253 
10673 8853 10418 9940 8478 14032 17490 11592 2229 
15590 839 9045 11696 2425 2446 3811 15325 6357 
11218 8231 3301 5170 4270 8982 12665 2968 3718 
16849 17104 12010 5037 12886 13330 10610 14573 3955 
5868 10431 1018 10802 5222 5749 17573 14954 9868 
4358 6639 13559 14397 4581 14955 17738 1380 14757 
16035 17021 4671 2046 16298 17499 10837 7124 7535 
3304 1766 1122 12206 1022 1408 9297 7791 6610 
5964 15389 16389 17401 5757 6966 1980 14928 5783 
13473 15770 17025 13418 17031 3226 14231 9661 595 
2554 4604 12833 8093 16409 5278 3904 14133 2524 
9405 15007 16013 3885 7958 5503 38 13225 8859 
11872 261 8221 10990 4881 17484 6555 11065 13408 
10455 4588 7011 7872 9467 6728 646 160 13129 
11489 5540 9815 15377 11053 6888 12190 11948 10931 
13353 12771 17185 8782 4818 498 10351 1297 11223 
12819 2757 16118 1539 12235 13574 17105 7434 926 
143 9012 14636 16904 8248 16717 16739 15105 16649 
4596 17023 3778 17811 11357 13441 11635 6941 6291 
8313 4880 2383 14107 12743 16826 2600 8880 15321 
11346 15976 16258 11147 2091 13958 5945 16457 797 
5358 12352 1627 15864 8801 3726 373 16723 4670 
11923 14778 416 971 755 2839 9148 11963 15355 
13141 3973 12489 12434 12635 1036 17389 9407 17113 
6153 11673 4368 13641 2632 8729 17608 11389 5117 
2188 11478 4959 2498 5864 6012 4449 16765 1953 
7712 16481 14592 12321 7869 9563 16542 1947 1320 
948 8845 952 9252 10341 13267 13893 12040 13 
14664 2298 10674 312 17363 16828 11447 4086 11776 
17601 6571 12450 10486 2136 584 15717 7799 4303 
8527 9133 2260 17437 462 3277 6345 9613 4917 
10704 1340 10273 8460 4956 6961 17835 16818 15307 
3922 14906 12104 7419 10965 10049 15636 7232 14162 
13637 3227 8120 15154 7069 9037 5316 5530 5970 
8500 16941 4383 8942 9650 7154 11629 13310 11104 
4916 12899 3534 15739 7240 11730 11802 1503 14879 
12898 2778 7890 7161 8668 4128 4597 11845 6222 
2502 12648 11675 1421 14949 2273 5452 3846 4739 
17374 5057 9785 5738 8913 16063 3348 14449 10057 
7217 2375 15722 4266 6091 1301 13166 6317 9394 
13461 1734 4706 14437 9219 1418 15173 12987 3242 
7952 8217 12708 7661 11034 10051 14429 11731 6577 
12953 17102 13737 15554 15116 11545 14223 6035 14969 
7758 15827 7200 5977 10312 11678 11487 8534 16566 
3332 14425 9256 6820 6095 14499 8856 1715 8086 
5523 8429 3656 604 11692 17538 7710 3899 15594 
3949 5750 9784 11920 1841 4332 12278 13911 1402 
225 16160 13762 7669 13331 15453 10360 4396 13065 
15443 663 7666 4799 14092 16581 3078 10243 8173 
3111 5785 14977 14254 14093 2581 1684 9862 17466 
3642 16261 2453 12741 7229 7584 11124 17325 13373 
10770 16841 16161 10163 15644 17388 7494 2577 9625 
740 10218 2486 16698 10219 1154 14240 13530 1090 
7205 4986 10909 9915 14068 13522 15214 1263 282 
13776 1930 13880 10758 15017 860 3247 11826 15999 
3772 8601 1825 11667 16455 6093 1221 13531 16113 
8542 4014 12808 17589 9272 11598 13663 9590 7631 
1988 7073 12966 1983 12647 17059 17068 14470 10217 
7641 14961 14570 12607 16275 635 12725 16927 6099 
11189 7997 12710 15862 11960 15954 16353 6175 4132 
12084 36 681 5501 12816 17506 14362 16908 8636 
15678 6855 12415 1536 8350 8823 11829 4100 15648 
16091 17825 2997 2763 14521 649 15137 7367 7290 
7084 9436 10330 13716 2764 10780 16610 3168 9825 
988 16344 17336 3894 9255 7219 12850 1621 12324 
15006 2753 11770 9955 16861 12494 9356 5153 10065 
17109 6510 16069 1757 8122 14936 6134 7961 13300 
10390 16206 16967 11837 15387 10552 2714 14678 17818 
11530 11323 16835 4727 13296 10900 9934 1193 1976 
14533 17696 6917 14535 11359 2029 16652 310 10188 
10021 8008 17681 16936 17537 1388 8620 3851 13754 
10904 5247 16122 3530 16284 7207 7227 2307 4826 
5300 447 12135 13236 7064 3654 5873 9545 4514 
2389 15528 10181 8041 4276 10935 12562 2803 8514 
10789 8901 13831 8338 8468 7135 17166 4349 4789 
14062 3126 13638 8741 9298 3165 9243 5900 16985 
3808 7750 9622 8418 959 13153 10972 1453 5035 
14170 3130 16269 348 1918 3605 574 4824 5427 
15471 3017 5777 2469 8545 6254 4058 14741 10851 
16227 600 6760 78 666 4278 2615 5622 10386 
6687 459 1951 16608 1731 5924 7034 7148 5751 
6676 8014 15796 8544 10001 11716 7605 14267 15216 
15060 2608 13965 15891 3755 11256 11570 7527 7183 
5377 5361 17414 11252 17060 322 11789 5146 2939 
14813 5725 13710 15047 16740 9681 16134 457 2241 
4438 4209 3369 4811 6735 1276 11176 2775 8962 
8538 132 1923 9055 12559 6873 6215 6479 12960 
17376 10100 6021 12622 10511 6460 110 6804 12061 
5675 14683 1352 12632 16917 13245 6808 12595 2201 
7431 2474 11808 4989 16782 5276 9084 14048 14192 
14811 5005 10838 14956 16760 16522 11873 17297 10834 
15616 12315 9419 15400 11677 16687 6149 16801 10619 
1187 625 970 5355 12973 6794 316 14551 9759 
10090 14177 9135 12029 17540 9187 7862 8794 11429 
2549 12869 14327 7975 13539 14358 1738 15062 5673 
9064 16924 1741 16065 10456 11820 1462 7399 15469 
7546 16546 734 16634 13383 2235 6881 12633 1659 
5566 12799 1872 15005 7134 11246 7947 2406 5051 
15526 4472 8844 13528 2571 3379 47 6456 2852 
4079 12923 5002 2407 9440 15177 1217 6328 17174 
12846 13752 12669 3686 13430 10207 9485 3102 6995 
8199 3870 12023 13823 8772 7887 12110 6163 9652 
10149 1691 13778 7788 12210 7470 2087 12011 4807 
5437 3940 14113 6396 6457 4754 13018 8378 3691 
3747 12856 16442 10365 10583 13365 4795 9960 15953 
12180 11572 13067 9105 2316 13883 15246 111 17426 
17799 8285 5856 17369 5847 5676 3154 1887 7235 
481 17282 6085 14604 11849 17286 13308 304 7765 
5891 14550 14430 3140 15985 17051 14882 6789 807 
12946 2259 4877 2920 8854 9087 13577 4146 11273 
15424 13050 12915 6244 15414 10454 7724 10773 6533 
12345 4267 2310 1455 8170 17156 5965 4430 15484 
6769 13103 10414 16022 2256 3658 5433 15670 8526 
3152 2988 13109 11891 10285 10174 6144 16199 10488 
13713 12444 1391 1704 12880 621 16114 2762 16960 
11434 16473 16902 9518 15700 12611 9099 15495 4226 
7116 2774 3962 13586 2853 8461 1670 17352 7733 
12455 14838 7301 11672 379 11431 16595 13660 13846 
8226 2280 7150 6880 1025 4629 8546 6604 14436 
2787 14016 17829 12115 10592 5544 3488 12338 10648 
7203 2176 11207 9857 10346 16588 4190 11612 1175 
1814 14464 721 7112 9925 11270 9684 1667 5139 
17399 14224 15434 15899 14150 16837 7048 7995 12227 
8223 5925 9688 2171 3278 10190 11283 2111 14393 
9756 16901 17331 16367 17057 9748 14971 5441 10463 
168 5612 4253 9944 3505 7532 5997 4422 5310 
7804 1491 16224 16525 5574 8960 13092 4233 13523 
10690 12207 17298 933 3467 7553 13624 14346 14532 
4711 3933 9880 10387 16757 1497 2683 9350 533 
13566 11413 7319 8715 1428 5033 13076 14457 13926 
17164 2568 8666 12222 10158 13852 4631 8795 2262 
17476 1203 14236 16485 17170 12015 657 14406 4113 
8728 3700 3425 12303 10559 17791 13072 16558 2382 
4620 16149 2962 11703 10924 234 8005 5950 3001 
7469 3431 2230 13933 7377 14249 11339 5446 5645 
9726 17412 13594 687 11452 710 5810 6063 8816 
5793 12244 9921 8651 12047 15083 16086 2362 9682 
6807 6685 8140 907 493 14326 2949 11819 2340 
3919 13678 16726 1048 7000 10720 15013 2708 2590 
16129 11087 11738 7777 9976 12365 16301 2059 1106 
11580 6869 11896 11856 16121 13611 9592 4748 1937 
7226 3335 15195 15793 5329 12225 8502 673 14963 
17591 6136 6310 2336 6689 11941 12314 6824 12195 
11482 3716 5967 11163 11289 840 5256 14120 3178 
14733 15882 8406 7038 6711 3100 9577 7326 5963 
10104 5145 17603 11184 11863 3617 13242 12638 4415 
4644 12050 14781 2099 3587 13935 2050 17784 11504 
11439 141 15299 17332 3082 3738 16304 2879 6723 
413 11195 9183 1325 1465 16019 13095 3121 8205 
8935 4384 5165 10553 8573 9400 15336 7889 2750 
5424 1382 14583 7396 6471 12196 4587 6562 522 
7874 7573 8785 8826 3403 8474 690 4577 1665 
17787 12516 17319 6874 10002 10388 8619 11145 8476 
11664 4995 13763 7746 10525 17006 16071 136 12537 
6551 9835 10088 4751 2329 286 11599 9124 14116 
878 9937 8848 5559 13544 14847 13159 4088 13175 
15436 6921 6411 13363 7740 8279 9719 1377 2422 
8593 1992 8354 4122 14908 15385 4155 6401 13456 
12970 15579 8543 8119 3652 7693 956 13195 2147 
3472 11464 11998 6892 13877 4517 11510 16919 17076 
13993 3633 5357 3400 8153 11419 5283 6238 16064 
9022 10222 2645 3970 10234 12248 17714 6865 5286 
4943 16465 4463 1072 2680 1848 2085 17413 7408 
12840 13940 15078 9515 17561 9883 3887 9569 17511 
9831 6274 16666 14517 16040 3558 12967 17455 10373 
4897 14889 2014 8539 8751 10832 7847 2220 10754 
5304 8084 427 10297 8633 4842 14369 9378 11894 
11251 5596 5730 925 11361 4049 2504 10272 15507 
3734 6924 10571 13525 17026 13401 13216 8994 5672 
9826 155 4585 2561 5473 10147 3370 1319 15392 
12993 10137 11643 4731 17416 15905 9608 13342 12664 
2610 7747 16788 6199 17650 7526 16820 13185 5652 
5989 12049 7005 5732 5926 5689 5585 11161 10776 
11876 581 10508 2904 2254 4264 14555 16863 6597 
14875 16440 16277 4324 16844 14161 11970 11756 2203 
17046 13016 13922 5587 16247 4052 15875 17268 14098 
12690 3297 17064 13885 4328 15121 11023 3730 14439 
7930 14395 1134 12549 7576 8405 17743 7464 17790 
14361 2291 8269 2456 1863 2391 16624 3114 10426 
8078 7559 13784 3164 16128 3275 12701 9162 16335 
16646 1600 10288 5812 11158 9919 6729 15064 4106 
16099 4634 16216 7729 15871 13379 4176 1874 17096 
12540 11409 139 11637 11412 8050 2622 17306 1241 
12911 8183 3366 6126 13550 17254 1835 2533 8863 
2106 270 11852 12903 4570 16141 1634 8920 13827 
5109 6468 365 17439 15435 12459 16401 16378 14205 
4827 17766 8189 9956 9596 9488 16854 12081 1628 
14930 3539 11018 4242 5130 17503 7334 11713 14874 
16799 14454 1184 9241 8103 15208 16577 7185 2877 
17284 13740 13645 3244 12782 16303 14944 16039 8485 
14917 8602 1302 17831 11924 305 12564 7782 363 
10298 9237 6183 8255 4941 3371 10680 6458 10566 
16653 11368 10192 16514 14995 1522 7359 972 3921 
4946 16425 13439 16774 2897 9450 3267 4719 10409 
806 14968 10705 12203 583 9678 946 14292 14350 
15223 12200 4567 6748 4911 10505 5125 636 10391 
12929 9772 10145 6534 2872 5512 5373 17048 494 
8163 8054 2880 5606 917 1787 17572 4686 5411 
17836 15133 17442 12803 6157 4314 726 17585 15498 
3618 15805 10444 10321 9082 5273 16990 11834 6752 
16288 6276 7824 364 3740 8637 6067 3635 567 
3509 5711 7812 11377 3252 10129 7241 1113 2304 
5142 4506 1754 10523 5763 8506 15971 9589 1432 
4866 17502 3845 6540 8275 4334 5207 7550 4376 
9161 10836 9698 3665 14628 801 10189 1788 7412 
8604 4064 6066 5205 10804 4928 3293 14621 6467 
6613 12092 1417 55 7067 352 7343 2194 8626 
12956 3274 10710 1312 14640 6516 1568 15244 1585 
8024 14674 11866 1564 5217 4182 9042 9434 4733 
16190 13562 11181 8586 8356 5242 14582 1242 5374 
6288 13777 12731 3757 5604 14487 17370 6895 9490 
3047 601 1942 515 17080 7987 17177 3363 4993 
1163 9236 409 1782 15348 14496 13842 378 9720 
9887 10626 2773 12004 11747 16103 1728 11686 1316 
10445 8775 15167 1895 511 5340 15505 6724 5492 
7978 2007 12558 16504 6908 12164 1010 9328 3907 
11249 173 16295 1397 5238 14849 10818 7960 15492 
2917 6747 510 17251 15583 16742 17212 17828 17635 
735 8689 14368 4494 15207 406 16428 15178 13368 
2286 5395 5484 9109 65 504 7723 4536 8075 
9415 20 3609 10622 15515 15061 13465 16860 4717 
16996 2123 6006 9777 14265 7558 14313 7243 10815 
3436 5274 4505 7354 7257 11940 10840 14819 17481 
14286 7418 13257 10984 12228 10807 10795 7001 12280 
1968 7699 2836 803 15932 3590 13154 17122 12656 
12399 14661 13792 17610 11299 11516 9251 10682 13659 
4725 6372 6829 14643 14084 16965 14125 13867 13488 
12624 7751 7181 153 242 14897 6843 15990 10464 
10916 16781 14106 13146 1903 9810 7632 11084 183 
9546 1478 6365 8488 7822 16066 11047 11480 7772 
6586 15649 11388 11329 17626 6425 7488 9846 15951 
7477 15578 17069 9800 13259 16223 5386 14082 9091 
7222 11975 1541 3042 7165 17847 9070 13193 8061 
2966 7132 14616 15691 2287 8219 9765 16729 3012 
15462 7588 2924 10230 1435 8142 17131 15727 12130 
7859 17802 6795 1566 8000 6664 11704 16361 5838 
146 11507 3149 1409 128 2384 6351 5634 1939 
9217 15020 5858 7692 13489 1308 17210 6553 3884 
8659 3479 10895 17804 6283 12837 16737 11976 10828 
5599 3463 10549 16400 14055 11749 1736 13040 15654 
6393 14000 15872 8358 15824 11415 4600 12521 4154 
606 3714 7145 6323 17686 10168 14462 12628 11042 
13791 13416 17450 13098 14730 17400 4025 10594 11971 
7363 11116 3480 7206 4677 5086 1928 1500 9851 
5470 12851 15037 1555 6014 7450 16405 10368 359 
16875 3239 8282 7908 15092 11336 2488 6915 13142 
7922 7898 3672 14920 16328 190 16342 4583 10016 
17694 9372 12160 8414 16325 6386 11518 3194 418 
2861 16311 16255 13316 4873 17433 5140 11962 3780 
6039 12035 16573 15486 3461 2849 14848 7520 11423 
13640 937 13419 4183 6530 3834 8664 6854 8814 
16243 15994 16188 14860 13161 7766 17408 7058 7534 
7190 13218 1043 7332 10173 5272 16611 4820 2625 
11877 14304 11568 13504 856 990 7856 14476 14317 
2733 8185 2613 16484 11286 942 3290 16000 16045 
13337 3353 3620 1868 2696 15496 9327 9771 10411 
9253 15285 1366 12454 5980 9216 10896 900 1281 
17367 1315 2198 9574 8118 3032 11784 1326 7090 
13773 10942 13927 10099 717 6473 16679 11508 13467 
6641 7180 10737 1571 2992 6603 5936 8064 6266 
1680 772 14589 7096 2024 15373 667 17017 13848 
11957 15885 13266 8097 5179 15569 760 15250 14051 
14989 12528 13402 6264 10546 1416 15458 3810 2224 
11951 15572 9809 13677 3783 11742 5440 3155 13182 
17175 4542 14377 7612 836 15345 13702 13495 1510 
7314 16268 13684 8777 13364 1528 10355 11148 1641 
17710 14634 11566 17508 16053 10745 17440 17086 9426 
3812 4423 13291 11259 8004 14979 10574 13005 15715 
14942 3514 7907 16664 3525 6265 232 13511 12377 
9737 1063 7480 15497 1444 14072 11744 13398 10976 
11823 9144 10824 16259 823 9069 15465 17281 14479 
4339 791 15591 7581 2728 14816 10609 5727 4102 
12777 3952 7701 17194 17248 5713 9979 3888 17843 
2729 7368 9749 16914 1640 1897 4582 4087 16762 
2044 13311 9867 4018 9281 1997 17267 7491 1888 
15433 3644 15263 13755 16802 9468 13200 8522 3867 
3320 5504 5352 9200 15915 537 11035 9607 9641 
3108 10334 15586 17727 10140 16576 9074 5114 12548 
3462 9634 16213 13326 3704 4186 9026 1931 5042 
14481 7577 8312 5565 1463 16728 1763 8592 6580 
5946 12185 11670 9145 10725 16430 15728 7003 13890 
15506 5532 13400 10652 9142 4493 15608 13049 11587 
11037 4174 12768 6861 7375 1982 9910 14864 7763 
17820 11999 13728 16616 13219 15667 8492 2205 1948 
16559 12161 7938 16390 4308 5177 6826 14855 15508 
12016 5388 3361 883 7790 12468 17848 4416 17381 
1494 9441 17734 7394 9017 17288 6118 11024 7261 
501 11211 3655 5038 8110 17124 9538 12779 16143 
14986 4607 11143 9344 5998 14834 4955 5444 12541 
2338 11472 13804 10148 5296 14699 12711 12057 2771 
11369 3292 3896 7834 9348 13553 12075 24 3573 
5060 16817 16164 3599 17339 17340 6884 3550 17792 
10530 17664 12951 14663 4617 13469 5611 16264 1311 
15274 8293 5330 13085 5804 2219 6069 1917 15960 
1182 10944 176 9983 10890 3257 4195 14534 3765 
8709 6846 8509 8713 9008 3380 4756 14142 10784 
5567 2601 14060 589 10443 3944 9508 8379 3878 
1188 8059 10121 11206 16020 9377 9881 5050 15290 
5933 1292 2996 73 1775 13509 13537 16403 15429 
6832 14494 3268 2332 7734 12041 2576 1795 16183 
16031 1936 10599 12412 6622 12316 16753 9493 12888 
16171 13964 15861 4336 17029 336 16478 17625 16751 
9048 11236 2330 5886 4041 1856 2766 13536 12021 
15641 5072 8703 8361 4265 12827 12992 3019 9897 
12152 2461 8760 15513 16891 4290 12893 1794 13405 
9605 11209 13619 8825 12700 4330 6853 2991 3946 
7344 6356 14014 12086 2341 10066 7178 5030 4909 
4801 3521 5844 10186 13854 9675 5704 10922 11885 
15338 8804 7697 13635 15668 16115 1440 16913 10276 
14850 1720 1654 1254 14506 2237 14558 5882 6318 
14888 11180 5438 17568 15155 6445 15055 8433 9918 
8533 12102 12519 14065 9289 808 14396 11514 9078 
1362 15190 14347 10712 2084 7149 12933 17050 8425 
10983 8905 6546 274 12849 13406 7677 3302 5948 
4840 10627 14538 16074 9268 4110 16437 54 7531 
4443 7175 15784 2562 11608 10008 2308 16939 15257 
8393 11227 7560 1369 16922 10175 6791 14195 15920 
7390 15090 11538 3356 12884 2606 2356 369 12392 
9075 6152 3135 6916 7814 12756 1827 1674 13894 
10465 4906 4720 10215 6253 14652 7600 8806 9706 
17644 9557 8778 8976 9878 9059 9591 8343 1476 
6370 1039 10469 10011 11532 7990 6371 10646 10274 
4518 2591 11467 15909 12818 5922 15618 4333 1538 
11138 13506 3324 13921 5803 13934 6335 1626 16943 
17259 16637 8622 4945 8874 14773 1579 11157 15366 
419 3120 7108 16648 10521 12730 3727 12650 14997 
3901 13690 11013 16225 10716 4855 6228 16931 11170 
9112 7468 3729 2170 4908 8981 7685 221 7902 
14575 3934 4984 13052 12283 3660 10504 14310 2125 
2990 10999 355 14646 16947 446 13860 5241 8351 
14468 10350 6086 9670 4029 8465 658 16961 15476 
2847 5034 8411 6058 15922 1946 13224 5802 13158 
3613 7248 10199 14151 1046 14584 4343 2034 3390 
8022 9697 11712 826 402 11528 12627 5458 11162 
6925 7070 7864 11381 15374 12118 12134 17188 12952 
88 13057 13480 17550 157 4271 12943 3489 857 