# vtk DataFile Version 5.1
Generated by LIGGGHTS
ASCII
DATASET POLYDATA
POINTS 17850 float
0.00292612 -0.0285379 0.00294112 -0.0108602 -0.0272504 0.00250252 -0.0133889 -0.0254365 0.00282297 
-0.0106499 -0.0261092 0.00242128 -0.0150211 -0.0248451 0.00360067 -0.0133631 -0.0242945 0.00282359 
-0.0109144 -0.0249954 0.00275378 -0.0122507 -0.0237579 0.00301001 -0.00985349 -0.0238802 0.00300701 
0.0122999 -0.0238334 0.00342286 -0.0110044 -0.0235035 0.00253802 -0.00816588 -0.0223681 0.00340324 
0.00360639 -0.0245017 0.00240401 0.00455102 -0.0251092 0.00233397 0.0109739 -0.0223566 0.00173848 
-0.0151831 -0.022579 0.00274645 -0.0115615 -0.0226239 0.00313172 -0.0105669 -0.0219071 0.00283836 
-0.00883083 -0.02142 0.00301934 -0.00533189 -0.0227245 0.00275211 -0.00332447 -0.0238145 0.00244796 
-0.00195992 -0.0222919 0.00289103 -0.000388738 -0.0248192 0.00212603 0.000776673 -0.0237124 0.00287077 
-0.0201608 -0.0211782 0.00272691 -0.00762709 -0.0211993 0.00331286 -0.0070602 -0.0221322 0.00320747 
-0.003489 -0.0217355 0.00331697 0.00197095 -0.0235149 0.00273942 0.00643806 -0.0222107 0.00280159 
0.00732369 -0.0229836 0.0019896 0.00851551 -0.0231061 0.00302776 -0.016835 -0.0213247 0.00322053 
-0.0125735 -0.021099 0.00335793 -0.0115179 -0.0211213 0.00299256 -0.00590333 -0.021853 0.00298477 
-0.00269005 -0.0209502 0.00338412 -0.00161236 -0.0212971 0.00346727 -0.000204941 -0.0218042 0.00327571 
0.000800394 -0.0214707 0.00371849 0.00095167 -0.0225053 0.00295255 0.00475834 -0.0217058 0.00236543 
-0.010724 -0.0203688 0.00267755 -0.00847985 -0.0204161 0.00304165 -0.00828151 -0.0194853 0.00370751 
-0.00399377 -0.0205565 0.00372816 0.00206203 -0.0217649 0.00346895 0.00423276 -0.0206164 0.00315886 
0.00707466 -0.0204138 0.0026042 0.00742592 -0.0193965 0.00255842 0.0088458 -0.0200806 0.00209205 
-0.0209246 -0.0204672 0.00291008 -0.0208191 -0.0192236 0.00259703 -0.0161829 -0.0185794 0.00291466 
-0.0107597 -0.019325 0.00324284 -0.00924987 -0.0189282 0.00315338 -0.00751831 -0.0186481 0.00284392 
-0.0047839 -0.0199326 0.00303752 -0.00305988 -0.0200386 0.00379102 -0.0010975 -0.0193661 0.00326522 
0.000136369 -0.0201325 0.00300137 0.00301366 -0.0207999 0.00250347 0.00580315 -0.019926 0.00258855 
-0.0220309 -0.0192769 0.00187568 -0.0186244 -0.0182661 0.00298657 -0.0141913 -0.0187681 0.0030671 
-0.00664929 -0.0175439 0.00317348 -0.00344209 -0.0189926 0.00362541 -4.13052e-05 -0.0186883 0.00312051 
0.000998537 -0.0183403 0.0032158 0.00382966 -0.0185072 0.00281976 0.00894738 -0.0182895 0.00255351 
-0.0213551 -0.0175837 0.00240518 -0.0201792 -0.0178684 0.00262652 -0.0101328 -0.0183754 0.00353604 
-0.00900568 -0.0170013 0.00304278 -0.00509069 -0.0179584 0.00339168 -0.00114138 -0.0181073 0.00344636 
0.000275253 -0.017165 0.00330395 0.00153958 -0.0172878 0.00318323 0.00239709 -0.0179432 0.00298966 
0.00505201 -0.0184921 0.00300857 0.00640299 -0.0189029 0.00250362 0.00774247 -0.0179862 0.00242842 
-0.0185344 -0.0169576 0.00284709 -0.0166263 -0.0174757 0.00281232 -0.0152691 -0.0157136 0.00341723 
-0.0114961 -0.0169705 0.00305349 -0.0105238 -0.0174261 0.0030938 -0.00368372 -0.0177719 0.00316906 
-0.00211628 -0.0167873 0.00359363 -0.000746915 -0.0163445 0.00386062 0.00363893 -0.0174056 0.00311892 
0.00472858 -0.0173534 0.00272633 0.00663416 -0.0162315 0.00264292 -0.017472 -0.0165516 0.00256417 
-0.0161938 -0.0158178 0.00233078 -0.0130447 -0.0153159 0.00272365 -0.00892103 -0.0156051 0.00299249 
-0.00580368 -0.0169472 0.00358946 0.000313029 -0.0146369 0.00262492 0.00196627 -0.01504 0.00296871 
0.00317747 -0.0162175 0.00303693 0.00565469 -0.0154181 0.00268907 -0.0210159 -0.0155283 0.00273261 
-0.0188417 -0.0149224 0.0026172 -0.0185005 -0.0158777 0.00320693 -0.00581463 -0.0157788 0.0034503 
-0.0022974 -0.0150902 0.00339898 -0.000923842 -0.0152113 0.0028453 0.00471315 -0.0148572 0.00228761 
0.00721164 -0.0139771 0.00202537 -0.0179981 -0.0141818 0.00265545 -0.0137532 -0.0142859 0.00315667 
-0.0102583 -0.0151649 0.00325271 -0.00691809 -0.0162672 0.00297684 -0.00417804 -0.015518 0.0035165 
0.000169174 -0.0132679 0.00228612 0.000641459 -0.013975 0.00344827 -0.0207769 -0.0132665 0.00237645 
-0.0190312 -0.0137522 0.0028718 -0.0168296 -0.0142769 0.00227872 -0.0120314 -0.0147655 0.00234122 
-0.0092485 -0.0145509 0.00320572 -0.00503216 -0.0146752 0.00348164 0.000730874 -0.0122786 0.00226499 
0.00185205 -0.0138714 0.00272359 -0.0251887 -0.0139932 0.00190542 -0.0217773 -0.0126886 0.00247972 
-0.0201647 -0.0123688 0.00235984 -0.0181993 -0.0129997 0.00268676 -0.0169444 -0.0126072 0.0024084 
-0.0108729 -0.011889 0.0028184 -0.00978562 -0.0126766 0.00335119 -0.00899326 -0.0117287 0.00347654 
-0.0083413 -0.0125945 0.00251716 -0.00415401 -0.0139087 0.00298903 -0.00146716 -0.0130264 0.002845 
0.00326881 -0.0122778 0.0021502 -0.0230201 -0.0119784 0.00293096 -0.0185497 -0.0120296 0.00264113 
-0.0158358 -0.012301 0.00295828 -0.00460844 -0.0123136 0.00305319 0.00214365 -0.0119064 0.00211611 
-0.0244578 -0.0108199 0.00243693 -0.0240749 -0.0120605 0.00300331 -0.0219264 -0.0114734 0.00219203 
-0.0108498 -0.0108005 0.00292907 -0.00989023 -0.0112179 0.00323604 -0.00715674 -0.0111609 0.00308986 
-0.00348683 -0.0117874 0.00303156 -0.0233613 -0.0101803 0.00271006 -0.020587 -0.0111666 0.00257262 
-0.00887422 -0.0106757 0.00351817 -0.0276241 -0.010094 0.00286341 -0.0251148 -0.00951376 0.00253214 
-0.0223411 -0.0103012 0.00227 -0.0211073 -0.0096174 0.00253554 -0.0118749 -0.0100423 0.00275517 
-0.00683671 -0.0100733 0.00306856 -0.00461031 -0.010515 0.0025984 -0.00976437 -0.00827412 0.00293769 
-0.00782695 -0.0088648 0.00322962 -0.00563098 -0.00995442 0.00270346 -0.0261859 -0.00913693 0.00218742 
-0.0238828 -0.00782865 0.00203557 -0.0222573 -0.00768292 0.00198643 0.00477794 -0.00939852 0.00152379 
-0.0282446 -0.00807346 0.00292061 -0.0256117 -0.0069073 0.00162542 -0.00413212 -0.0081981 0.00225753 
-0.0176473 -0.00567158 0.00145998 -0.00892935 -0.00632564 0.00263064 -0.00614522 -0.00740515 0.00287869 
-0.00496076 -0.00728246 0.00263326 -0.00725123 -0.00636387 0.00274605 -0.00608128 -0.00620008 0.0028529 
-0.00261681 -0.00677119 0.00245422 -0.00800369 -0.00528708 0.00282195 -0.00147349 -0.00653026 0.00235248 
0.00373792 -0.00675278 0.00171854 0.00607476 -0.00712189 0.00234317 -0.00326253 -0.00572995 0.0024567 
-0.00150271 -0.00541259 0.00256987 0.00255949 -0.00515084 0.00162294 -0.0276673 -0.00381229 0.00167905 
-0.00859349 -0.00434326 0.00314708 -0.00509832 -0.00461291 0.00277447 -0.00387533 -0.00455204 0.00284126 
0.0069733 -0.0040774 0.00209185 0.0210369 -0.0048784 0.0031448 0.0288956 -0.00541608 0.00331054 
-0.00698888 -0.00349575 0.00274419 -0.00449534 -0.00365362 0.00270815 -0.00113456 -0.00435597 0.00278109 
0.0023987 -0.00389402 0.00188223 0.00899691 -0.00431187 0.0026586 0.0261743 -0.00433401 0.0023946 
0.0276574 -0.00533932 0.00208772 0.0290137 -0.00431429 0.00176155 -0.0269903 -0.00258941 0.00152277 
-0.00839345 -0.00318729 0.00258243 -0.00308674 -0.00281154 0.00305072 0.000137532 -0.00283652 0.00220593 
0.00136526 -0.00348702 0.00215227 -0.00774043 -0.00220104 0.00249783 -0.00545837 -0.00267635 0.00310449 
-0.00114175 -0.00333662 0.00224596 0.00729966 -0.00253559 0.0013467 0.0225375 -0.00284801 0.00226139 
0.0265747 -0.00283554 0.00203316 0.0292917 -0.00279641 0.00220998 -0.0269801 -0.00119461 0.0015783 
-0.00927336 -0.00126112 0.00256776 -0.00615386 -0.00200091 0.00269025 -0.00441676 -0.00244663 0.00336468 
-0.00270356 -0.00178242 0.00291231 -0.00174282 -0.00206969 0.00269592 -0.000597879 -0.0019841 0.00252409 
0.0241723 -0.00159391 0.00216348 0.0275169 -0.00169334 0.00240033 -0.010747 -0.000595656 0.00249568 
-0.00828752 -0.000985895 0.00299505 -0.00709805 -0.0013212 0.00226796 0.021995 -0.00118225 0.00244183 
0.0261507 -0.00061978 0.00242211 -0.010437 0.000592209 0.00279493 -0.00911734 -6.5318e-05 0.00270433 
-0.00509698 -0.000578578 0.00325795 -0.00416692 -0.000389834 0.00252996 -0.00184982 -0.000603372 0.0028175 
0.0281136 0.000794112 0.00229886 0.0292976 -0.000264929 0.00208601 -0.00760713 -0.000150882 0.00277912 
-0.00669288 0.000413206 0.0030668 -0.00447031 0.00116796 0.00292781 -0.00244862 0.00097723 0.00256962 
0.0246657 0.00170738 0.00204901 0.0255877 0.000891494 0.00267046 0.0266804 0.000543668 0.00227352 
-0.0111234 0.00170351 0.00253401 -0.00982008 0.00156969 0.00254298 -0.00780114 0.00198921 0.00333792 
-0.0057141 0.00108065 0.00337107 0.0112177 0.00175101 0.00171504 -0.00511323 0.00222258 0.00271331 
-0.00340862 0.00146088 0.00323302 -0.00220263 0.00237073 0.00264091 -1.14755e-05 0.00259672 0.00309513 
0.0289695 0.00298452 0.00268923 -0.0115949 0.00274858 0.00224545 -0.0105812 0.00342513 0.002752 
-0.00827422 0.00318381 0.00320995 -0.0054303 0.00332766 0.00260239 -0.00298813 0.00305296 0.00285432 
0.0268242 0.00442153 0.00248453 0.028363 0.00426578 0.00201197 -0.00849247 0.0042454 0.00315241 
-0.00713554 0.00376594 0.00360984 -0.00599878 0.0044247 0.00317145 -0.00373998 0.00387632 0.00313001 
-0.000306663 0.00470325 0.00196135 -0.0131171 0.0039201 0.00242787 -0.0115437 0.00394664 0.00231029 
-0.00933017 0.00499031 0.00253503 -0.00784251 0.00531735 0.00278317 -0.00172837 0.00479329 0.00275933 
-0.0111061 0.00541356 0.00228307 -0.00459719 0.00517378 0.00346085 -0.00308975 0.00481872 0.00274167 
-0.0125844 0.00568887 0.0019482 -0.00489403 0.0064052 0.002891 -0.00295824 0.00633548 0.00255274 
-0.000978059 0.00668696 0.00227847 -0.0141648 0.00631256 0.00196859 -0.00357528 0.0077113 0.00276857 
-0.0148504 0.00769142 0.00253121 -0.00780379 0.00760181 0.00257903 -0.00648995 0.0079595 0.002829 
-0.00499318 0.00768049 0.00254989 -0.0165643 0.00946726 0.00193315 -0.0108747 0.00846836 0.00200421 
-0.00536507 0.00876667 0.00244033 -0.0201935 0.0100359 0.00139714 -0.0149099 0.00881226 0.0022295 
-0.0135213 0.00895515 0.0019652 -0.0120032 0.00849533 0.00214232 -0.00981899 0.00926628 0.00211785 
-0.00256049 0.00942352 0.00201332 -0.0162031 0.0108314 0.00245931 -0.0155358 0.00984919 0.00223885 
[...]
POINT_DATA 17850
FIELD FieldData 6
id 1 17850 int
5377 13971 15891 12147 12624 13874 5048 14868 12832 
12530 6479 110 5276 15616 10100 15583 15203 2759 
16749 6456 2618 14982 7885 1397 16801 11450 10969 
14153 10867 12310 14112 14286 6001 12940 12688 11256 
5725 8142 17668 6735 386 14079 16436 11789 7316 
17828 8363 15966 5002 11246 10261 16431 16950 7254 
7001 10380 884 6215 5924 153 6351 17282 10916 
10619 17069 13924 4792 9759 16996 4079 8719 14106 
6244 17025 5386 2259 10718 3714 5795 12245 3463 
9440 15093 13539 15238 2511 8695 17755 8995 2000 
8199 2572 11329 11831 7555 7021 11904 3813 6724 
17486 10828 3194 1732 2638 15321 14882 5574 6995 
12345 3940 12130 418 16258 6789 839 9578 12947 
11572 14912 15985 14955 8546 10610 1356 14757 16849 
2656 8131 4270 15872 6906 16933 10737 4807 17369 
15462 1780 9195 15243 17571 992 4588 14004 6405 
16118 15590 10546 10151 17151 937 11765 13625 13901 
16484 6610 3226 16649 7048 11096 11286 6704 8503 
17182 3255 9748 14249 14768 9137 16525 9038 11185 
6213 4625 9034 8105 10987 755 9809 16050 12037 
86 3816 2091 12025 2787 17437 3108 10334 4878 
1175 2949 5946 16130 11669 8777 15171 7476 15437 
16409 8221 17057 1563 13591 5945 2444 11988 17142 
17678 11635 4308 16904 16901 16182 3743 5317 647 
6714 17412 16763 5504 13930 13400 6300 17298 2752 
3072 15083 290 17658 11703 15885 8240 6247 3922 
5033 4525 6656 10388 10057 3337 11184 16202 2298 
8306 12003 10525 12161 6363 7938 7217 9275 4012 
10553 14891 4368 7396 9869 12569 4577 17780 3178 
11469 3050 8120 14486 7069 14455 690 14186 13850 
13509 6016 16483 13085 15594 10375 13363 17006 7192 
12191 3846 11226 1856 2102 11535 7890 5750 8474 
635 9048 3949 2085 13175 14296 11416 7344 5882 
10254 15274 10008 960 6274 1930 4518 10662 1319 
9848 8863 5576 3490 16928 10181 389 13343 12519 
15900 5354 9447 3120 139 1579 305 8355 14438 
3132 12589 12324 11409 1682 5765 12492 10734 7935 
12501 17684 8054 5028 17633 3509 11359 5812 17300 
10780 6058 11486 5900 11461 15850 5635 17550 14536 
5217 11448 1643 4928 15831 3220 6493 8111 1743 
11866 5606 6713 3141 16190 17452 9298 1056 15543 
4479 5407 4811 11249 17432 10269 13352 10233 17629 
15584 14420 11749 7978 9777 5673 5413 4735 12228 
17148 9490 4993 4154 291 6018 605 13710 11379 
6726 5484 1395 5161 6457 5505 7095 7503 10622 
15853 16860 5599 9941 12029 4717 14192 16575 15206 
8488 7450 4812 13077 3438 17297 8689 1738 4109 
15430 8631 7751 5682 1746 15928 6873 65 10840 
12559 12542 2123 16781 699 4509 14661 16172 2418 
9448 12061 3696 7589 10464 14113 17669 16620 8212 
1828 12276 16556 7656 12355 17131 15727 4491 10418 
11525 17295 7181 5847 11299 14956 9960 11940 2941 
11973 11388 2920 4133 6836 2262 11529 10466 11820 
12896 145 11971 11460 1082 16150 13472 5851 816 
9350 12880 10365 10428 5351 15953 11116 497 12942 
16389 1101 6129 16737 481 10458 4410 6056 5222 
2287 12881 10368 12963 7670 7772 3152 7145 5230 
13207 3744 17471 14573 10454 3718 16960 2535 13171 
13050 6535 14778 14725 10053 15092 10526 7599 15480 
11917 16311 14150 11823 12851 12568 8982 4233 168 
5784 15670 13036 7348 17725 13103 16157 15073 10463 
5645 15667 17352 12327 13928 8208 16837 13092 16274 
4253 4338 7733 1571 4445 8859 15888 6965 13291 
16022 7011 12718 12817 16968 3514 7332 4365 15728 
8795 13678 15976 11660 3962 13267 15615 4595 2948 
13574 4648 245 17105 8829 9189 13958 13392 17173 
7319 10690 1380 14366 971 11910 1104 13684 10346 
8502 12528 9370 1849 472 9913 1704 4449 4421 
12802 13557 7139 836 9867 5306 11858 12460 7314 
16496 9309 3278 9145 7309 5626 7301 14022 4917 
12239 17139 17121 498 9687 15369 17194 1136 8782 
17623 14223 16542 17835 8023 14942 16508 14986 5754 
5378 10784 840 14120 11803 4537 3335 4584 7784 
553 9142 15418 2362 687 11337 17721 3587 6961 
15173 10497 10486 14479 14906 14346 15138 5831 9080 
15091 10743 9893 3617 8492 6571 17811 17555 5713 
9737 9709 7262 12541 15013 12729 16470 17727 17689 
14380 3656 13242 12638 13441 5316 9016 956 4956 
13310 5165 15433 11583 8500 12772 11145 14116 3124 
1468 2341 10384 6057 2601 10664 12970 2039 17339 
14855 17792 10781 5559 5400 15154 4689 16559 6332 
12213 4975 16020 12350 2616 7746 6317 17349 8379 
12412 13972 7982 7564 15942 12749 16630 4250 9538 
15668 15407 17374 8269 16144 14093 16183 7355 5147 
9668 9140 10121 3383 4572 2291 9862 15827 2562 
14542 2544 3633 10810 10841 10218 1715 36 2845 
15648 17413 8228 17743 14558 239 860 3611 13854 
12849 12603 16440 3119 3730 355 11895 7205 12701 
6193 14961 16922 8016 17554 13531 14678 5689 12562 
13309 13690 3613 11013 1432 9018 11170 7997 14298 
3901 10505 16692 10892 636 11023 14944 14318 17537 
3421 17166 15123 17818 7334 17107 4846 9265 15476 
9161 11938 16216 7897 15074 2990 7101 9571 12135 
352 6216 1621 523 2533 6067 3654 16961 10204 
8499 6311 567 7550 5004 3168 11641 3130 16401 
4866 17517 6748 4334 6554 5873 16610 2194 6985 
1568 16936 4831 1918 4686 3496 1453 9653 9705 
7731 11341 4147 5277 12013 8544 7527 6130 12773 
12731 4027 3416 7183 2837 10386 13278 15919 132 
9236 10888 12481 4278 1728 1276 11421 4144 10032 
6741 10200 3011 7759 15011 8933 13257 7418 1014 
17722 4893 1843 3449 13176 5146 173 5895 4752 
15047 12923 11685 9681 4209 9109 2939 1352 8737 
2168 5238 2473 10030 5274 13598 1751 13465 13876 
14345 2007 5675 16872 17802 14561 12399 14529 13270 
3651 9155 17562 3369 4780 6217 3692 5774 11078 
734 6881 10845 12332 16066 5558 10777 2054 16142 
4806 9135 15400 9573 5396 17805 6487 9553 12045 
12555 1462 544 2931 11873 17541 735 11751 16940 
13019 16025 4405 11978 10376 5648 5350 17212 10164 
12280 16370 166 14813 7947 17626 2406 2407 14358 
9415 12886 8721 3869 15908 15231 14551 1004 16662 
12052 5053 9330 3590 4390 7898 7216 13330 15846 
1000 10416 8588 13430 4649 5986 10090 5786 2720 
7975 1756 14084 13039 13895 4115 16834 3012 7257 
14046 15990 11975 13146 17448 6795 17377 12517 15770 
11281 11257 15824 14717 10319 10600 3756 15469 14696 
17255 1541 6323 16400 707 15434 8285 13674 9073 
13572 2571 7788 2522 6094 14177 14011 7363 6085 
4671 5179 13142 9187 2229 17051 8793 12915 8219 
1887 9485 7222 16972 821 4432 7480 12939 2524 
7116 11507 7341 11951 9091 7399 7911 3911 7955 
15512 10190 5749 1489 12282 1797 12160 2224 5868 
15000 11695 2915 2449 5508 16907 2861 3049 1129 
2946 16393 3301 5372 1870 8060 16114 12946 8377 
8683 10455 1420 3997 9882 10583 8082 17826 7321 
4127 3706 11725 11527 1408 12235 2024 4423 13463 
14476 17400 16268 621 15704 2119 14964 13495 3065 
1025 8960 1997 4661 16011 14236 3640 16588 17401 
12454 17708 8917 7836 1854 17165 4053 9426 17031 
7872 2382 4629 3810 11936 11011 10209 3352 2293 
8139 4267 904 16035 6264 10178 3952 17113 9921 
13589 4190 101 2738 16367 15555 13072 9405 3240 
5441 1830 537 3462 11589 12040 10798 4098 9303 
13020 4102 10411 11147 7606 15669 12242 1036 8577 
17791 7789 1071 17023 252 17013 2780 7616 15559 
702 10933 14971 1310 9789 17267 9144 16259 12027 
12821 7933 8658 14780 5660 14278 11196 7220 12056 
1829 9029 7516 16694 15184 16955 10264 15980 6297 
15994 1401 7377 6155 462 7326 6012 13005 1087 
11861 5226 4201 13280 8878 16485 11612 10173 6728 
2632 1937 1833 8845 6153 17185 10291 3599 7038 
6723 6580 13286 1297 5544 13311 5864 5963 3235 
16723 1226 17248 5919 15132 4607 9408 942 17410 
14507 17487 15504 328 14862 7553 13510 646 13653 
7745 13553 12314 6772 17827 4932 17222 1931 15586 
6705 12980 10674 12472 5998 5638 16576 14214 9218 
12605 17683 11957 15624 12377 13677 12297 10775 8406 
12195 3028 8826 12791 17609 1212 6136 10483 11369 
9069 3505 8560 9400 11941 16098 12548 1303 9682 
1393 8177 11884 8460 5424 9017 10652 7049 5256 
12626 9565 16998 11565 11587 1182 16116 14847 7710 
6285 9252 878 11863 7861 14130 16566 11673 16304 
6004 13616 12537 7375 15918 11159 17124 3525 17189 
13681 3887 14425 10944 10088 4284 929 15738 546 
8534 6807 16776 7083 2862 8593 4517 2502 6179 
14065 14203 13004 2236 13456 17027 1306 1376 9493 
28 7755 5567 4093 15299 7603 2771 6875 9037 
9650 7874 11885 13763 10179 8217 10222 14314 17787 
17463 4475 9027 16117 12433 325 5674 16753 15383 
1992 11464 2584 3594 16276 293 10973 877 9246 
16071 15313 11802 14517 11754 15149 16524 12967 2308 
15217 15446 3946 5357 7952 4416 6846 7608 2875 
14681 3746 15306 16462 16874 11180 17625 16751 4155 
13166 17256 12479 11832 6957 17627 16997 1652 15781 
4014 11678 4842 14917 9022 11643 11003 11060 17384 
15338 11998 12993 4003 12389 11939 427 1431 3558 
39 15155 14369 10627 7666 14254 5926 2882 16854 
1362 14493 16857 9386 12855 1514 15017 10147 17188 
17662 3377 12118 1771 1193 14773 10175 9897 17764 
11538 3207 9234 4719 15190 13719 7560 729 1875 
12610 6785 4029 4343 14652 5109 11931 8068 7510 
3719 7738 3598 8143 13480 15435 11001 13776 7390 
7636 9561 11248 3464 17439 3697 9263 6243 6007 
16107 8602 7067 5575 13053 5125 15157 2997 2561 
1709 9082 4242 1686 2312 11307 14861 17055 848 
7812 2187 492 98 3080 14533 12392 3022 1835 
7060 15875 15127 6576 9260 2761 10409 12298 10705 
11759 8601 14968 7263 16303 4984 7176 7964 16523 
15048 3210 1269 14936 11138 4789 11687 9741 15832 
16703 11157 12564 196 8078 11349 5338 10630 15862 
11813 7808 5207 3070 5981 882 11377 1512 12211 
4058 16865 2126 2816 17388 9657 14555 3241 14612 
10397 2880 889 10585 8626 1304 5130 7827 6123 
2644 9434 15454 4899 6688 2129 11308 16780 11627 
17782 426 6687 15167 6808 12595 12765 11570 1173 
11584 16434 2550 666 5492 5622 17707 1007 14849 
17357 16240 15348 2101 15477 733 1942 697 12788 
10124 16381 8075 14689 6895 16742 2827 13275 17648 
6557 4650 12315 10790 4288 11372 16044 10183 3457 
3305 15952 558 2022 14918 15049 10041 14049 11188 
9084 4725 7723 8224 2934 6971 3755 17193 8495 
6406 3858 14158 14392 15282 7533 9376 8063 15062 
9333 14856 142 14637 14650 2474 16782 4690 2074 
11455 16546 15932 9108 11126 11654 11069 11808 5649 
8280 12482 3926 15136 10028 10834 11677 13823 4536 
16884 14125 12766 1659 5092 3841 10829 6794 14543 
10442 3600 8876 10534 17366 6006 803 1725 17759 
7493 5633 15538 13867 9482 17245 10876 12609 2031 
6261 2836 6372 8772 13316 5051 16687 11273 749 
14316 16629 8788 10410 8624 631 10682 2328 1224 
15711 11893 1294 14379 17499 15246 8882 10532 16789 
14673 6900 8296 4550 4989 3658 16522 3978 7210 
11821 8039 16984 10142 13533 5855 3686 4816 16973 
8558 47 14539 147 15005 13659 7272 10501 15102 
15884 17368 16902 5480 17490 14069 4643 10246 16095 
6586 13262 4515 11720 11301 12204 10168 9064 13211 
14498 10149 14878 8670 5221 10207 6283 316 11851 
1968 7546 1699 5671 12101 5757 14877 668 13462 
9665 2087 3102 2852 3177 2055 6667 5301 11336 
16365 117 5272 5183 11738 3672 16405 13032 13975 
5337 16438 15414 1076 3149 14897 2159 12376 2026 
7121 14340 13787 15910 3002 9735 11671 359 595 
933 16223 7235 6706 4965 16474 7998 3767 1708 
1268 17353 11592 6185 2176 14564 14231 5243 5676 
12665 10773 2762 8798 12828 15457 4738 14274 17083 
10802 16612 12455 4583 9297 15105 15268 13418 11366 
13715 3154 608 606 891 7481 2968 16457 1680 
16611 2849 14469 5881 717 15389 11923 9661 14635 
222 8526 5776 9314 1575 11434 12009 2774 12190 
10931 17476 14149 533 8797 7520 823 226 7268 
11603 12476 1073 14408 6530 1281 11452 5609 14133 
10731 17152 16346 17140 4320 7701 15029 12046 12771 
10370 7169 2253 15424 4226 11327 7995 9420 7958 
6604 5980 14749 1018 3310 11616 2109 7984 2838 
17389 6976 15969 16558 9968 2587 2691 11879 14852 
17338 17558 15402 10398 13859 6767 234 9012 6815 
16456 2383 11497 1391 1080 5845 11948 11847 9607 
17806 6097 1287 12340 10450 13155 6105 3985 493 
5695 1230 11956 7000 13467 1816 12359 14271 14016 
14926 5997 584 9802 5037 16407 3228 2665 15915 
12187 16616 6784 13329 15165 8223 15786 2554 7908 
1572 6980 6941 16914 14393 14397 11016 7903 13927 
15242 17786 17249 2574 8934 10918 5503 13806 6164 
11093 10093 15052 2879 13182 4833 526 2815 15470 
16017 5902 16430 2683 10341 6480 17582 6267 1428 
7444 13569 38 16129 5814 13641 15962 4128 8928 
9724 11504 4018 5390 13408 9534 4357 6840 4580 
16270 8783 9626 13543 17075 4339 14615 7221 14032 
8404 4086 3593 12866 6979 4258 15572 6923 16154 
13179 11338 158 6685 14781 15739 12735 1320 12373 
3121 14969 1503 13498 232 13683 926 14895 9468 
4644 8520 312 13963 12114 7485 8441 15671 9026 
13 8846 9148 9944 11918 14464 9688 17103 657 
6861 11223 15084 3320 13804 13852 673 11896 12981 
17320 12371 11856 16664 10004 6265 8015 8850 9881 
10344 11195 8592 7171 14983 1888 1953 15811 6646 
3467 7434 2557 3342 12275 7570 8198 15812 9951 
987 10965 5114 2059 286 17591 9703 9785 11963 
4818 13364 11742 16555 16683 16168 13544 16445 1382 
2998 17784 1034 10394 9778 8961 5738 2590 2962 
13594 4742 14250 4111 5321 3896 10812 3146 17319 
7595 5908 14553 12016 16581 11194 6560 4412 3082 
1494 11206 9797 6471 15637 3019 3854 13095 17848 
6780 2901 5624 8315 1665 2708 12779 13611 14474 
17231 13964 11545 8743 13903 9983 6091 3573 13637 
9437 6239 9441 14376 5759 1719 10348 2508 5704 
11651 11615 1072 15636 2273 8249 17309 9085 8848 
3292 7532 7072 10082 8368 12120 11935 2252 2461 
4995 1311 3540 2045 11430 12125 2477 17386 4415 
11192 11149 10378 15180 2332 17234 10530 8354 17664 
247 2581 4482 17480 7943 10759 17269 13144 14279 
16143 3565 6874 14339 9835 5691 14949 7669 8322 
17841 11630 10379 1879 6445 675 13766 885 3026 
4875 6263 2375 1789 1593 12189 11797 16817 3403 
15645 4017 10615 5233 7713 3380 7313 8903 8314 
12155 1188 17035 14347 11520 12516 10312 13284 6786 
9214 14154 6182 1837 10039 14966 2922 6865 3332 
7686 3170 2979 2330 1387 5886 5283 12893 15257 
15280 12086 4890 5813 15472 2778 14538 16161 13885 
2369 3912 14654 9719 13877 12102 9201 12473 1936 
10508 11419 17102 8059 11933 11850 16441 16069 8433 
4122 4051 3025 16507 16578 8804 6238 14068 3366 
6622 12708 16913 12220 10272 11236 12966 1848 2619 
16641 16841 12647 17026 12778 6909 4152 13319 14875 
8084 10922 1154 3894 12084 12283 1883 5155 17466 
8173 7413 4443 4176 7185 1628 1538 16073 11352 
12734 5730 15380 4307 8383 875 7073 9670 8106 
11970 5596 15121 7981 16946 9009 14381 3234 1634 
3088 17696 3520 17825 419 8149 4957 10638 9965 
12783 1090 14575 8485 8986 8289 9697 17059 6654 
11323 5122 2237 13815 509 14098 7367 4718 16774 
3806 11368 2714 11791 8653 11393 8392 4039 7041 
1521 1671 11044 538 11810 16209 1946 10754 14349 
16206 17600 4609 4703 365 8122 150 4204 11815 
5473 485 2080 9356 9450 14939 17724 10215 3779 
13781 8852 826 14646 2504 2071 4803 11655 12077 
5273 9621 3482 13701 11243 8411 3136 10056 7896 
13041 7902 5153 10366 1781 2566 7521 12002 7844 
7782 1427 16099 397 16284 7517 2137 4095 9262 
11712 8357 6642 783 8405 9878 17143 917 12850 
8784 17284 11637 16947 8350 5172 5384 3075 11990 
13882 9460 12459 4263 8351 8041 16433 6426 806 
12864 14741 15662 10523 8823 4386 1488 8444 14135 
16931 130 17528 14701 10192 988 16247 11770 2081 
11610 680 4457 16269 10129 12641 348 700 11834 
11471 12374 8506 5022 5577 10999 14599 3274 16334 
11155 6254 4733 2320 3605 11054 10675 15461 13562 
1564 4771 6516 10851 12087 4663 5614 16534 1333 
11176 15796 127 11181 4273 10862 10732 1265 1590 
15060 1782 11360 10302 4184 16934 2775 7034 17540 
9354 500 17071 3471 12504 14281 10001 2489 14312 
16103 785 9824 15679 1092 15178 1163 15505 1695 
13785 13139 1329 12566 14368 406 12561 2925 852 
409 11822 9987 2484 10226 13324 7781 625 7508 
6050 1232 5605 4520 2650 2161 1109 13842 15492 
12657 2483 6945 8813 1923 7243 14357 322 2096 
12394 13941 2040 14683 14164 11477 14416 5555 10815 
1551 3544 8536 17251 480 12558 12632 9419 2575 
16740 14595 14744 16944 8941 10838 8109 13022 5355 
2374 15072 9660 599 15881 12202 8641 14109 16368 
12612 10934 5487 9740 3375 1187 2936 16760 15903 
12919 12197 16447 5318 9872 1021 12010 14797 17850 
8706 16339 5449 14461 5566 11674 2735 13410 6024 
4559 10954 11594 8413 9217 6839 15845 14643 3713 
17122 13488 11553 14522 4168 7354 9102 6448 9347 
7239 17299 5143 3892 5015 7887 4754 9014 5305 
13792 4020 6804 12011 17497 5006 1415 3042 17839 
14006 12844 15691 7822 7862 11987 8358 9875 9251 
7134 16843 4666 8966 12180 17159 14604 1141 13950 
3479 2313 10019 15126 13661 15930 4487 9100 6843 
10006 9130 1225 16379 5853 4465 5961 1739 9385 
15484 16545 12669 5838 4371 3747 10258 5546 14867 
7588 2924 12836 4544 6396 10673 3106 11972 4873 
4711 17545 7535 7582 15835 3764 3394 17565 12447 
8585 13365 12697 1688 2384 5747 15902 6234 4038 
14173 3947 16357 13393 11465 6702 4234 5904 9221 
11262 14082 11726 10791 10831 12014 14950 16958 14667 
17104 1667 5875 10414 10975 13235 11207 17546 10766 
1277 10957 4877 11976 14703 15771 490 11315 9412 
11872 11888 2316 6144 6393 12950 15684 1555 15063 
360 777 14218 13218 6075 13119 5883 14035 15686 
2475 17803 721 14088 15423 3461 17408 6114 7058 
9628 3796 3885 5736 14436 12574 7868 5291 7133 
10353 1089 16371 6781 16243 3620 6125 15325 11065 
14033 16377 2929 6669 14317 11346 6186 2613 1670 
1785 13650 3223 217 1915 10924 3780 13788 7427 
9771 15495 12178 3812 15373 640 165 8185 5433 
1083 9766 12262 4312 106 1950 12179 2626 13129 
3583 10995 13925 7856 8318 9656 12982 16679 5446 
5322 11423 10816 10441 7403 12463 10125 7397 7842 
3398 236 2463 8313 3933 13337 6039 5170 5454 
11259 16013 1203 812 868 3768 6172 1647 17817 
9692 4604 8729 15497 15021 7124 15782 8272 2696 
13350 10919 6275 17313 9984 887 13314 8004 11428 
9060 8715 14805 8855 13174 17423 10513 15899 13702 
10068 3006 14764 12777 8647 11807 16446 8511 1726 
7376 9153 13443 10111 12199 1814 17280 17164 8005 
2729 8522 2208 6498 4548 12841 8364 16676 8872 
7646 12097 8889 9182 3778 15458 11413 1893 4348 
17447 12870 15040 12497 797 7612 13634 11035 1049 
15378 4538 12857 14948 9467 4183 9353 13926 160 
1279 10990 17634 4539 525 4963 11732 9281 8246 
7491 15643 9210 10091 8381 963 11752 13519 3616 
6966 14532 7419 10592 7158 1122 9837 2405 6150 
3955 9634 2011 435 11481 57 8179 6122 17456 
1213 2992 7469 6291 11730 6198 4553 1897 7804 
11997 3381 12244 9407 1995 16598 9570 15725 7907 
4847 6107 4402 432 11037 13141 5310 7799 15856 
17752 10893 5419 15337 16465 14388 17601 3828 10256 
11882 557 6603 460 8284 14592 2336 5810 6826 
17459 10387 1627 13913 883 1048 16213 10824 8581 
11946 13425 2143 11953 9726 1505 10596 15350 732 
9324 900 2171 12833 15882 7777 7226 8476 15589 
3361 14879 3277 13893 10232 4493 13624 17281 5440 
9614 2132 11865 2568 7834 3867 7119 8979 2652 
11325 4799 2758 14699 13125 9980 12719 340 10977 
16004 910 2602 10704 2099 10259 1817 1982 9379 
10713 4617 5929 10249 1244 11330 17187 2408 12860 
7807 14664 14481 11699 5415 686 1054 905 15287 
8942 15352 3378 10096 11776 8110 14963 17381 12899 
16086 122 531 10515 16308 1400 12075 17288 4112 
12386 11403 8935 10132 16477 13676 12312 14167 9979 
7720 12015 12339 996 11143 10577 10474 5177 7322 
15318 10890 12152 9675 2451 3227 17311 1911 1125 
17108 15816 15263 1112 17170 16481 15791 10644 17243 
6711 11840 3983 903 7154 8856 3878 2953 8839 
2563 4181 7712 4621 5804 2002 7012 2232 13026 
1229 14142 8168 15822 7474 73 3448 11629 15019 
16164 2515 6310 575 16988 10703 14311 5299 1734 
11034 2911 6063 11472 5304 4791 1165 14590 9115 
14733 3721 17223 2452 14758 16993 17457 9183 336 
15826 14429 17066 10875 17617 8875 8509 17566 8573 
8911 17801 3128 3804 10825 15508 5933 3435 6921 
1301 14739 11104 7172 15692 15744 16063 17807 1426 
9635 6872 14494 6100 2338 12041 8104 8617 13318 
11913 16031 4131 16215 3456 6953 8605 5827 11050 
15641 10833 4269 8475 12076 4990 14449 3474 9446 
589 6682 16040 16152 5057 16926 15934 17688 15087 
10782 16375 10051 2220 15548 11599 4739 2271 8774 
13693 9291 16403 12840 1124 15647 16476 3534 14448 
12666 6988 3553 9219 663 13322 14908 10257 12131 
6252 3963 2540 71 11710 5196 9061 1419 2219 
3920 17808 11928 3400 15513 10599 2646 9937 17477 
13644 2813 5330 8694 8543 17498 17340 8703 15443 
4030 14554 2073 7200 1775 6287 13452 4140 16412 
15579 8119 14975 5570 2349 8825 15917 12008 8153 
6045 17650 16891 17568 1874 3247 14247 9378 13724 
15905 9175 12167 13163 9579 8739 3078 3242 10143 
4761 9094 2456 11817 17455 10165 1029 3772 6152 
17734 6121 3948 16437 9916 12922 5010 951 6318 