# vtk DataFile Version 5.1
Generated by LIGGGHTS
ASCII
DATASET POLYDATA
POINTS 17850 float
0.00409484 -0.0280061 0.00146263 0.00250613 -0.0271088 0.00148373 0.0129313 -0.0262562 0.00188275 
0.000988098 -0.0253635 0.00184778 0.0017114 -0.0246416 0.00146957 0.000256921 -0.0239335 0.00142806 
0.0153243 -0.0233946 0.00149285 0.00614143 -0.0237398 0.00142271 0.0123396 -0.0219565 0.00147112 
0.0159409 -0.0215122 0.00147476 0.0196549 -0.0218977 0.00145024 0.00571782 -0.0223579 0.00145029 
0.0111639 -0.0218443 0.00148067 0.0146565 -0.0212675 0.00142546 -0.00626558 -0.0202567 0.00142794 
0.00475435 -0.0203269 0.00158765 0.00666779 -0.0216583 0.00148815 0.0179251 -0.0205996 0.00140067 
0.0190167 -0.0206291 0.00151516 0.020145 -0.0200239 0.00141241 -0.011937 -0.0187247 0.00150094 
-0.00731944 -0.0201323 0.00194419 0.00698831 -0.0197624 0.00141399 0.0109291 -0.0196533 0.00141163 
-0.00941234 -0.0201981 0.00142576 -0.00796572 -0.0187331 0.00148239 0.0111342 -0.0186098 0.00156907 
0.0185236 -0.0186383 0.00143996 0.0194844 -0.0192194 0.00147208 0.0221535 -0.0192548 0.00146466 
0.0095976 -0.0180299 0.00143541 -0.00642253 -0.0171575 0.00142002 0.0214875 -0.0183243 0.00148163 
0.0228244 -0.0167842 0.00156888 0.0130535 -0.0162221 0.00141782 0.013719 -0.0170748 0.00139547 
-0.021748 -0.0169618 0.00146797 -0.00686112 -0.0161289 0.00151027 -0.00546816 -0.0157098 0.00155222 
0.0152629 -0.016279 0.00146206 -0.00728841 -0.0143453 0.00150916 -0.0050032 -0.0145651 0.00151519 
-0.0247393 -0.015396 0.00186602 -0.00848679 -0.014453 0.00150432 0.0149101 -0.0148043 0.00144635 
-0.0245034 -0.0143915 0.00143213 -0.0100322 -0.0142321 0.00149919 0.0159662 -0.01453 0.00151966 
-0.019207 -0.0124841 0.00157994 -0.0203809 -0.0127786 0.00156739 -0.00889698 -0.0122458 0.00140329 
-0.0124233 -0.011481 0.00145844 0.0140879 -0.0104817 0.00141306 -0.0144875 -0.00968653 0.00144133 
-0.0112167 -0.00830784 0.00141441 0.0151554 -0.00847504 0.0014777 -0.013762 -0.00786012 0.00151675 
-0.0122349 -0.00708353 0.00143067 -0.0143443 -0.00695447 0.00143347 0.0134301 -0.00650484 0.00178029 
0.0150089 -0.00663267 0.00177941 -0.00839173 -0.00521141 0.00153525 -0.00735286 -0.00349747 0.00143401 
-0.0129265 -0.00394099 0.00148085 -0.011714 -0.00382596 0.00144375 -0.00491919 -0.00304252 0.00142869 
-0.0132671 -0.00222924 0.00142486 0.0213569 -0.00138769 0.00152328 -0.012774 7.39289e-05 0.00146575 
-0.00426047 0.000250621 0.00152748 0.0184008 -0.000762738 0.00138879 0.000346927 0.000184968 0.0013962 
0.0273615 0.000685852 0.00152496 -0.0173999 0.000996657 0.00147493 -0.0150548 0.000722986 0.00143594 
-0.000799457 0.000520775 0.00144009 0.0191986 0.000946855 0.0014245 0.0202945 0.000868996 0.00152208 
0.0221183 0.00190193 0.00144841 0.0236785 0.00165442 0.0014411 0.0248925 0.00207543 0.00146467 
0.0012741 0.00174659 0.00140905 0.0195698 0.00195573 0.00147237 -0.0199555 0.00207953 0.00146813 
0.00678806 0.00275853 0.00149833 0.0231988 0.00366069 0.0014906 0.0282989 0.00302102 0.0014851 
-0.0188859 0.00424473 0.00142103 -0.0164754 0.00401825 0.00140477 -0.000848969 0.00348834 0.00150254 
0.000216724 0.0029943 0.00147707 0.0197178 0.00382112 0.00144555 0.0221475 0.00316078 0.00144821 
0.00186603 0.00438946 0.00140307 0.00402775 0.0040599 0.00145896 0.00864613 0.00395891 0.00151451 
0.0188457 0.00460851 0.00143725 -0.0253039 0.00468758 0.00146051 -0.0233473 0.00481825 0.00143318 
-0.0212305 0.00439478 0.00145771 -0.0164207 0.00509932 0.00147046 -0.00130477 0.00490105 0.00144117 
0.0101021 0.00521912 0.0015359 0.0274975 0.00406911 0.00150901 -0.027322 0.00616601 0.00141849 
-0.0254163 0.00579882 0.00153523 -0.0134559 0.00478106 0.00140279 0.00346562 0.00547856 0.00140366 
0.00446215 0.0050655 0.00144598 0.0113109 0.00593697 0.00147436 0.0119977 0.00418663 0.0014058 
0.0148712 0.00487604 0.00145493 0.0176523 0.00476392 0.00149428 0.0207071 0.00466745 0.00142303 
-0.0283624 0.00756758 0.00144547 -0.023502 0.00661343 0.00143145 0.00650974 0.00589041 0.0014254 
0.0200549 0.00562514 0.00139391 -0.0156973 0.00724812 0.00148815 -0.0136373 0.00682866 0.00152859 
-0.010627 0.00502174 0.00145235 0.00432019 0.00615366 0.00145813 0.00531935 0.00573469 0.00138755 
0.00618744 0.00696647 0.00143038 0.00718536 0.00670919 0.00173835 0.00868404 0.00657638 0.00141228 
0.0203255 0.00718344 0.00145781 -0.0082617 0.00629386 0.00146503 0.00235839 0.00659706 0.00148715 
0.00942019 0.00777668 0.00147975 0.0116917 0.00711614 0.00142663 0.0154801 0.00710903 0.00146407 
-0.0215491 0.00828131 0.00148723 -0.0199927 0.00842083 0.00142643 -0.0187836 0.00765798 0.00140362 
0.00349849 0.00785442 0.00144917 0.00740824 0.00781783 0.00141969 0.0134039 0.00822214 0.00142275 
0.0186335 0.00753382 0.00144312 -0.0248234 0.00903036 0.00142664 -0.0169628 0.00931065 0.00153515 
-0.0073696 0.00735244 0.00152628 -0.00187167 0.00875715 0.00146823 0.00639821 0.00930226 0.00139625 
-0.00415169 0.00867406 0.00144912 -0.0033355 0.00948812 0.00147897 0.00219364 0.00954431 0.00146874 
0.0066528 0.0103457 0.0014344 0.00830262 0.00963177 0.00146022 0.0137685 0.00937611 0.00147728 
-0.00121656 0.0107622 0.00144151 0.00351142 0.0110874 0.00144044 0.00767118 0.0112233 0.00146602 
0.00863259 0.0107263 0.001445 -0.025853 0.0110962 0.00142329 0.00981839 0.0112641 0.00148386 
-0.0267092 0.0121536 0.00145542 -0.0255857 0.0131985 0.00144596 -0.00171207 0.0127651 0.00140194 
0.00100221 0.0121064 0.00138594 0.00479265 0.0126631 0.00146442 0.0060203 0.0142662 0.00143013 
0.0131746 0.0138908 0.00140367 0.0234073 0.014347 0.00154027 0.00999741 0.0155218 0.0014266 
0.0120198 0.0148686 0.00149277 0.00491973 0.0153883 0.00144381 0.00615903 0.0158624 0.00145931 
0.0132446 0.0159321 0.00141425 -0.0243333 0.0162623 0.00151105 0.00880985 0.0166944 0.001465 
0.0199473 0.017024 0.00144266 0.0243301 0.0163294 0.00149425 0.00747543 0.017001 0.0014074 
0.0128215 0.0170617 0.00140281 0.0143059 0.0174091 0.00162833 0.0181555 0.0176317 0.00142643 
0.0216537 0.0171104 0.00145966 0.0111782 0.0185594 0.00142445 0.0225661 0.0180333 0.0015451 
0.00242754 0.0182752 0.00137097 0.00500119 0.0184558 0.00148276 0.0101173 0.0200557 0.00142659 
0.01524 0.021316 0.00150629 -0.00252795 0.0209393 0.00148685 0.00136103 0.0199898 0.0014735 
0.00267863 0.0212306 0.00179803 0.00437721 0.0202674 0.00144507 0.0137181 0.0210859 0.00140547 
-0.0132962 0.0222731 0.00162898 -0.000577631 0.0216214 0.00148983 0.00546522 0.0207165 0.00147908 
-0.00958874 0.0214452 0.00140047 -0.00830006 0.0213568 0.00144827 -0.00633792 0.0220196 0.00144556 
0.00455855 0.0220212 0.00144636 -0.00870232 0.0224039 0.00140832 -0.00651754 0.0231237 0.00146011 
-0.00500042 0.0224187 0.00144959 0.000649059 0.0228108 0.00147389 0.0030639 0.0225985 0.00141812 
-0.0150512 0.0234567 0.0014567 -0.00797979 0.0234909 0.00144372 -0.00325598 0.0241805 0.00139324 
-0.0169654 0.0240225 0.00139944 -0.00811717 0.0248341 0.00142967 -0.00928568 0.0249178 0.00149762 
-0.00679856 0.0248051 0.00147444 0.0126176 0.0243294 0.0021678 -0.0113291 0.0257674 0.00146634 
-0.0101205 0.0257434 0.00141452 -0.0130702 0.0262833 0.00146834 -0.00860429 0.0258404 0.00144234 
-0.00744891 0.0266913 0.00148165 -0.0108147 0.0272489 0.00149762 -0.00937465 0.027798 0.00144857 
-0.00810524 0.0282618 0.00144427 -0.00170586 0.0280449 0.00159424 -0.00287242 -0.0290862 0.00196469 
-0.000736672 -0.029379 0.00146437 0.00101806 -0.0293573 0.00145843 0.0018203 -0.0283892 0.00144847 
0.00212189 -0.0294002 0.00140626 0.00398442 -0.0290978 0.00180315 -0.00039895 -0.0280503 0.00144101 
0.000651008 -0.0282676 0.00173667 0.0057729 -0.0287665 0.00221468 0.00727733 -0.0282739 0.00153633 
0.00846353 -0.0275683 0.00149106 0.00300656 -0.0288313 0.00140901 0.00952969 -0.0272982 0.00156741 
0.0106849 -0.0273706 0.00208667 -0.00692704 -0.0265975 0.00248047 -0.00220085 -0.0273125 0.00193389 
-0.00131821 -0.0265593 0.00149014 0.00117218 -0.0269439 0.0014573 0.00533821 -0.0265673 0.00147106 
0.00759522 -0.0263045 0.0014325 0.0117932 -0.0269252 0.00199697 -0.0139132 -0.0253158 0.00168903 
-0.0106653 -0.0260425 0.00252199 -0.00481094 -0.0258132 0.00258642 -0.00233832 -0.0262943 0.00247448 
-4.78224e-05 -0.0257033 0.00190153 0.00317874 -0.0261901 0.00157004 0.0120163 -0.0259589 0.00271942 
-0.0153407 -0.0249549 0.00184836 -0.012165 -0.0250611 0.00217929 -0.00920672 -0.0253743 0.00242024 
-0.00145723 -0.025426 0.00176159 0.00200859 -0.0257456 0.00142275 0.00497559 -0.0255164 0.00155454 
-0.0163467 -0.0244061 0.00210101 -0.0137429 -0.0240422 0.00147668 -0.0106839 -0.0247776 0.00226174 
-0.00571997 -0.0239865 0.00234725 -0.000494427 -0.0248001 0.0014364 0.00298663 -0.0240574 0.00142393 
0.0101726 -0.0252859 0.00166469 0.0150513 -0.0248779 0.00160094 -0.0173315 -0.0227801 0.0015343 
-0.0138387 -0.0229666 0.0018429 -0.0111654 -0.0237063 0.00235605 -0.00943124 -0.0237053 0.00253738 
-0.00416289 -0.0236721 0.00147227 0.00104443 -0.024073 0.00207714 0.00617418 -0.0248553 0.00144901 
0.00721201 -0.0238203 0.00145252 0.0093949 -0.0234802 0.0014201 0.0128557 -0.0228834 0.00167116 
-0.00886301 -0.0231845 0.00167473 -0.00620963 -0.0229717 0.00231424 -0.00523113 -0.0230216 0.00179886 
-0.00291729 -0.0233942 0.00211597 -0.000806612 -0.0236262 0.00176827 0.0113228 -0.0229807 0.00155285 
0.0160531 -0.0226208 0.001463 0.0172362 -0.023678 0.00143221 -0.0133411 -0.021941 0.001628 
-0.0110396 -0.0222927 0.00149357 -0.00581939 -0.0219765 0.00242756 -0.00425148 -0.0225258 0.00146188 
-0.00190399 -0.0227974 0.0020894 0.00062978 -0.0230176 0.00178678 0.00232287 -0.0229681 0.00144216 
0.0067102 -0.0227991 0.00172185 0.00812138 -0.0232251 0.00147392 0.00900439 -0.022468 0.00146221 
0.0101697 -0.0228575 0.00180305 0.0139531 -0.0226313 0.00149371 0.0186555 -0.0226454 0.00143267 
-0.0108062 -0.0208433 0.00143028 -0.0102782 -0.0213992 0.00218663 -0.00856455 -0.0217272 0.00188299 
-0.00340867 -0.0222465 0.00221124 -0.00112289 -0.0217888 0.00151107 0.00151617 -0.0224023 0.00196893 
0.00359907 -0.0222374 0.00140801 0.00468128 -0.0229159 0.00143152 0.00781882 -0.0221494 0.00150753 
[...]
POINT_DATA 17850
FIELD FieldData 6
id 1 17850 int
7498 2027 1014 12147 2797 5407 6104 11542 16778 
15834 14800 9390 7269 5487 5578 12264 13368 12716 
13376 5327 1828 9800 11219 5542 6084 202 16042 
16108 17302 8568 630 17392 8420 5997 15748 12654 
2028 9041 8127 2712 12332 5183 17152 13326 9099 
17149 12942 5883 11411 16597 11242 15438 12297 15414 
5446 12070 16193 10553 16301 1617 3683 11984 4942 
7659 10289 10539 12244 13195 11580 8469 6547 6572 
8510 4131 983 4007 6540 15241 9017 9895 14021 
17421 9831 384 6951 15097 9790 5931 17773 2308 
1831 10073 2983 764 2246 4308 5421 2237 10741 
9776 14179 4953 272 2662 16281 4155 11835 12567 
5346 13705 12078 1002 14047 17844 3361 3927 4503 
17810 7871 12920 5438 3334 6575 3568 11295 12002 
8669 11307 1662 4272 15677 13506 14249 16995 11442 
2873 11618 16074 15287 10635 11969 703 1519 6712 
436 13151 13704 10306 2639 17704 3601 10113 4818 
9507 5178 1735 3158 467 12357 6644 84 16004 
17410 14796 9471 9348 9816 4561 16669 11655 7800 
3698 7334 905 17749 17388 12678 2421 5806 2036 
6905 13827 4902 16501 7135 8894 12024 10980 17265 
10761 7329 7499 11709 4156 10180 15967 11483 8815 
4276 14132 12734 9072 5125 12785 6606 4603 3961 
266 13025 8169 5719 2352 3575 2139 1174 3359 
4094 5735 1657 10898 3748 3541 12252 9180 9763 
5116 4869 5764 5192 17092 6348 3837 4552 7428 
5161 3314 11435 5314 14319 107 8196 8484 4591 
3579 11971 558 10815 146 1860 511 16151 3395 
2200 782 8988 10281 16469 5692 3754 5826 2022 
351 1963 9371 5305 6869 8770 10887 12518 15098 
4977 11553 11228 4604 1623 4377 4196 10845 9994 
10533 5746 7629 6174 11576 4038 923 4215 3543 
9003 298 5100 3869 5331 5503 2863 10715 8400 
6566 10660 339 17778 10425 15878 7213 12777 9603 
4633 7917 4458 8954 5074 14101 9628 1732 2824 
275 11976 8496 10102 8000 14615 16300 14928 8136 
7932 11803 4775 12226 8798 11572 1147 8227 17698 
8155 13437 1778 3514 12262 13747 6981 11915 15427 
16409 15289 12940 12216 9216 12506 8934 14109 17611 
7535 3250 17394 14006 16583 16226 8131 9253 7181 
13742 12047 17447 4025 242 6289 5368 2354 7555 
12661 6330 8541 15175 10798 1785 4474 5115 4070 
6401 15630 8039 16243 6144 12576 3092 4937 5157 
3300 5097 3239 12463 11068 5181 12399 7893 7068 
14501 12033 2316 2946 15903 11273 15556 8490 8641 
11549 13161 14194 14357 6396 10258 9944 9271 4218 
17021 8664 2009 14856 15797 16487 4381 8445 300 
4428 17283 17760 16154 1276 11455 12657 8011 12594 
11421 10305 8536 3405 14662 10877 17182 2205 15192 
14055 6457 7183 15092 8501 16767 16574 17755 17349 
12739 16070 17226 14483 15538 15948 9170 17424 5343 
1392 16655 1995 7955 4365 577 11033 11116 3344 
304 6177 16740 1811 16076 14300 4676 7058 11434 
2708 1718 16032 17817 5047 5055 2651 2359 16768 
5218 9767 15908 9921 16028 16765 17261 7520 725 
9616 16551 16037 12010 10944 10586 7989 10389 7908 
10729 12182 9339 3423 12421 6915 13655 187 8461 
8344 12190 3447 11951 3147 6105 11749 6557 6850 
11561 16491 9334 14297 10435 10567 6329 16400 406 
16109 17175 17474 15140 13244 1780 3101 7947 8657 
3712 1980 2757 8992 10642 3775 11071 12624 7606 
3643 6188 12195 8635 9684 13482 17389 5929 6875 
2987 13199 2007 17164 11684 3392 2686 16818 1303 
10114 6094 6291 14079 9907 2046 9713 6772 1343 
17838 13143 7195 13776 11855 8872 5042 1133 10497 
11185 2836 3374 886 818 10920 11923 3368 17693 
9303 17159 17328 2620 4684 16955 133 12056 9819 
13105 6471 3028 16864 12284 9570 16389 1296 11253 
2419 2049 5725 15377 16357 16217 602 11823 5798 
9227 7763 4475 14147 9898 15615 11972 6705 8854 
1990 2673 5607 9300 11135 16863 13552 12074 17157 
4296 3900 922 11578 14146 7596 16291 6501 4410 
3534 4624 16953 15214 16126 7644 14823 11974 4397 
1106 840 13471 14751 14485 16430 16213 3051 4407 
8843 7673 5307 4126 6052 8401 6684 7524 5252 
6803 7361 14377 8595 6638 2103 4765 16484 7942 
17018 7841 4082 9355 15046 15826 7231 15798 5963 
4171 6356 1929 3235 3381 3737 10495 16753 16744 
17172 9799 12677 7925 9316 10902 1801 8314 3020 
13490 698 10170 6921 2751 12922 16854 2435 11894 
6082 4467 17438 5489 4846 9141 11087 11667 6973 
8682 16826 5732 6737 930 4024 607 5241 9503 
12312 4986 5901 17632 4621 12604 4783 12288 4087 
5844 8070 8048 14825 5060 5387 7455 10494 6563 
16974 7920 1783 9989 16728 17230 2319 16435 4061 
8623 2658 9208 16882 7814 12142 8994 11775 14949 
13186 6243 5655 4611 9429 13440 1583 13196 2296 
13770 6993 11438 5873 11036 2371 4731 17123 6823 
19 1320 1806 13962 9596 11757 13811 11735 6932 
12995 8435 9916 1128 13698 6190 15866 4380 8705 
1671 5404 10219 9302 16886 6350 9399 16363 8295 
8481 8993 11197 16674 5587 12221 14542 11881 17008 
3230 12177 7852 8803 3005 3469 16238 16851 7426 
5620 13384 781 2604 7251 2945 8042 10952 17836 
6663 13191 14934 17095 16048 11739 15209 3318 8081 
15975 2578 3345 855 11977 6335 1261 6440 15138 
15179 2487 16036 7643 11875 8457 17607 14364 1904 
3073 2271 2829 3542 2387 1807 12795 9294 14165 
5989 11782 3495 14739 14619 15614 1767 16080 7356 
2146 1336 7818 16483 5872 521 11989 14335 9377 
14395 16455 13530 12541 669 9707 7328 8650 15120 
17322 12307 12241 6455 9162 16806 6126 2084 132 
14272 17544 3377 13578 10440 15116 4128 10412 429 
3938 13810 17000 5270 4723 4944 2514 9548 13061 
16497 11309 12782 4354 2452 14309 16510 10055 2353 
9011 17506 41 5785 15188 3112 9937 2591 9398 
4324 11839 3660 9529 3299 16083 14023 9576 277 
12608 10926 10646 12426 14665 3004 12126 4852 9506 
16423 11498 13480 6814 12980 17570 14621 814 4506 
3725 1710 5148 16897 427 16085 12671 6133 4598 
12816 15478 10491 14959 6947 270 14679 15130 1406 
866 2325 16049 15685 10407 13059 13920 14380 16725 
10017 13215 3802 722 6095 11924 14434 8379 17270 
15702 12021 2128 16632 15383 16935 16650 16073 16015 
10976 664 1759 4776 11706 5637 17612 2291 6991 
10326 14997 15648 11368 13894 15801 2870 12405 17554 
16681 10262 1668 12316 5273 12914 16971 17026 11980 
6049 13348 11453 15822 1825 5214 15003 1052 12442 
6009 9362 6454 848 7395 9199 8968 17498 7350 
11332 783 3120 9998 6294 10201 13531 3045 5155 
4058 2746 11280 9312 5912 2840 3701 7769 7339 
2081 7324 16635 10972 15769 859 4364 16344 17833 
11463 13395 8089 4925 7687 17127 13992 3808 5593 
14064 7542 10436 10320 3280 14930 7287 7064 2727 
8312 10048 13153 302 3098 5613 9159 206 233 
11546 14786 10196 8547 1954 17789 7569 7835 11443 
4132 9833 2239 8863 7864 9862 6946 5411 3879 
3165 13587 12464 9991 10535 17119 4268 1692 1655 
15328 10929 3582 12882 12395 6043 5205 8482 13608 
263 16155 8323 1160 4771 2930 6686 8299 2871 
2196 7760 5135 4202 14338 535 559 4230 1407 
5809 6586 5171 1485 775 5484 3588 652 776 
6298 4828 2018 1078 6589 8370 4769 1922 11137 
6106 10457 1227 924 9490 4910 3196 8512 3876 
4614 324 12410 12692 3150 4523 6451 6365 4893 
5498 3406 2199 5569 666 14577 7715 1307 2178 
13620 3914 11262 2054 2534 1639 3463 1354 8908 
1933 9872 9677 2222 672 2388 3023 2891 8466 
10020 1316 4845 14048 5839 7751 5455 11772 5534 
1438 13772 10570 1923 8569 2571 5274 145 2500 
9274 8813 8594 10396 8336 2702 15474 1000 6168 
5355 3691 12755 5138 14106 9858 12656 9116 8334 
13218 5353 12137 5492 11423 8713 5769 7586 1478 
13009 9310 7727 14661 16858 14232 2999 2202 4190 
9754 15576 12545 12561 10195 3305 4370 9794 11503 
11027 1380 8585 5340 5276 10903 7165 1141 14568 
14561 440 8364 15430 7862 11058 8698 362 11672 
11927 12681 16189 7880 17481 3428 13844 16745 15758 
11388 11356 6571 7314 11258 2554 14022 14020 13472 
11647 15693 12858 11028 6804 8659 15578 2265 3460 
11669 7866 8676 6116 1223 7401 2633 17396 9385 
9108 5194 5061 8819 9482 6640 823 2327 2423 
4062 2958 7169 4154 14404 5086 15065 6555 6248 
2065 11020 11396 3040 11014 3881 1026 9412 2159 
6325 10555 15686 10014 15663 873 14125 16976 9193 
13741 1272 8969 14317 16157 2317 7580 116 7107 
6858 8537 17036 1607 13699 17478 13871 16622 13990 
17310 6317 12817 10365 1968 9695 6293 14263 16877 
3728 699 6488 4300 9381 11959 53 1287 4976 
11093 2134 17427 4966 12341 16249 11329 14976 7496 
4536 8899 7646 15321 14100 13270 5170 7402 9526 
1845 11758 3523 1511 9979 6164 424 11222 1217 
8859 12566 14548 12502 12752 15440 16424 10471 8415 
14163 17240 16573 11380 8937 12771 12821 15961 11696 
16382 6805 15646 14278 5275 15022 16262 11229 11055 
4835 17387 197 2520 17682 14372 16019 7139 5801 
8257 13716 10419 9384 10168 16634 3524 2189 9868 
2791 13897 16657 12206 6011 15167 13895 2713 14650 
16134 13523 12242 5992 13683 1879 10896 9104 1808 
14473 5291 9632 7112 12338 1075 10861 5623 15139 
3744 11169 14614 11410 1493 11975 3398 14120 13684 
11564 13366 12101 17783 6135 10673 15575 11041 17463 
3186 10424 16992 13087 15023 5712 1273 678 606 
5143 10028 15503 3142 9058 7688 11456 1800 16287 
13985 11863 11024 3743 7341 2062 2293 1541 11764 
4742 227 10988 11744 7892 3110 7675 3257 11184 
7534 14149 14752 7513 14271 904 15402 15165 4402 
16612 2922 2664 10140 1074 14819 8855 15544 3702 
15009 17331 6707 9342 11778 5880 12804 13178 10212 
11703 7472 13560 7242 4293 12401 1063 2648 7903 
14783 7427 16104 17832 5419 1313 16152 12158 1997 
10257 3402 5517 2784 14572 12802 3940 2171 15061 
15293 9139 2177 17103 161 11962 6483 13575 8168 
12303 2868 2683 4102 16017 8502 2440 2292 5660 
5317 11612 16245 6851 7332 2215 820 6072 10213 
14668 15290 10369 2442 3645 3313 13631 17323 12935 
14398 9225 6603 12957 1143 1238 4908 13020 8175 
3304 4582 11670 16254 13903 4411 3083 6155 12008 
6391 9873 1888 9029 8917 17673 106 8621 6730 
3531 3450 6546 12500 12486 14871 3264 15994 10117 
346 12233 10272 14268 14464 2738 2059 11390 10467 
1756 6266 2541 1597 11593 7115 15601 6670 176 
1733 5753 3330 5027 9414 2011 15000 6740 8740 
9756 3903 5026 5854 8593 9245 13670 4823 4266 
14181 13449 15658 4842 6080 6832 7106 7797 1966 
3298 7650 6935 4653 1897 10279 1608 9306 17086 
13375 2594 1466 5915 1722 458 15875 15672 15164 
10971 6728 4817 5268 586 8711 7394 15275 14795 
10167 16527 11841 1774 5948 1292 14719 9859 10833 
9081 9892 2264 1762 780 11587 2160 1786 12786 
12927 11444 14834 5315 6005 12381 17342 2347 11060 
12308 1612 13014 2433 2646 12057 3529 2337 17078 
3941 10537 9954 12951 6007 2282 12441 5391 4051 
1235 9071 941 6020 11605 8575 5129 10469 3727 
13545 6336 13504 3329 5497 6274 3277 2268 6208 
198 9535 15466 2668 2310 17047 1285 4504 9197 
9111 6556 17567 10049 13689 14554 10367 10648 6562 
16614 7636 1152 8139 7012 7363 5734 2862 17668 
11153 1199 3839 12043 12278 4702 6023 1926 10865 
17620 15947 9080 6499 9900 2266 4729 4607 5721 
5705 73 14010 2492 11312 15606 2719 1973 17418 
10328 5984 8522 5199 6154 8133 16380 4517 17769 
11857 9169 7071 11320 3678 4578 1031 4015 5254 
12640 14145 5524 12507 11828 9263 8434 15864 2510 
7741 16443 1795 6368 14879 3491 10379 5392 10496 
14586 17383 17619 13255 8456 14242 10774 17259 11350 
15453 7726 6111 16928 2363 12602 10703 1529 5804 
3349 17667 10772 15080 10405 11461 9683 13855 13906 
12690 8739 16179 4259 4439 186 13680 4255 4743 
13721 17733 13873 13171 13355 15487 603 7514 1111 
7154 16937 7041 14528 2108 17285 13735 12579 4426 
6892 16161 5334 3498 3417 13369 5119 6690 3827 
5523 9650 11367 15374 11610 16836 14919 17660 13662 
3934 369 6787 10797 15789 612 2573 5191 1350 
8294 15510 12538 13957 15336 7755 16372 8923 10890 
10722 779 3823 17631 2195 13987 9119 13567 14570 
5271 5759 4315 2145 5616 3790 13616 16471 150 
12883 15524 17029 3421 5083 13614 15057 16272 8421 
9953 10811 3598 2272 1105 17816 14968 9555 13207 
17801 9203 11691 8554 192 16451 15757 16039 4100 
3167 1239 4822 6494 17726 15210 9854 14781 8392 
8425 8976 7544 13006 16110 1802 5373 10664 16173 
6744 9464 17600 5348 15335 12145 6211 7974 872 
662 16358 7775 9025 14613 13339 1882 13428 893 
5174 13872 10420 2226 11983 1440 17457 12167 10661 
238 5142 13836 14524 13880 9793 12903 1775 3864 
11313 4010 12593 10524 17505 14002 16244 13362 8873 
17556 9561 14465 17604 17268 3095 10759 9061 1066 
3988 12305 7577 15957 13214 13553 13921 6903 2523 
5089 8691 3921 2468 3234 4014 17407 14385 16029 
16624 15381 9804 14219 7930 14246 16148 11985 7221 
13138 7238 8241 4329 15653 5471 12813 9079 13236 
13433 6734 14808 946 5049 12683 17687 12223 5080 
3506 15026 12475 11384 10789 7228 11192 16660 17005 
8016 13796 12429 6121 336 3171 6400 1518 3132 
16564 10312 1334 13534 8297 12655 14518 13063 3135 
16437 1537 6413 3971 88 16228 10601 7176 10566 
2284 1013 7732 10605 11919 17585 14115 10939 12925 
14628 5169 16915 3200 6678 5398 5960 1894 1827 
17188 2187 17326 14054 15618 11407 13907 12664 15471 
10252 10587 12871 1421 10544 4627 9823 960 6621 
5360 2765 10835 14148 9698 8068 4120 7225 1495 
15379 841 6631 1300 1464 6891 8694 14180 2937 
8078 13479 14195 4471 10047 4569 4450 4749 1787 
6828 9165 14936 4314 8287 7327 13784 16947 14256 
12049 8620 14697 1170 299 8069 8125 8545 1844 
6441 17766 10704 5934 8380 8 4248 13396 1959 
10110 6464 6937 6254 11398 4217 7331 10565 1972 
2557 16610 6611 5763 4158 12162 7278 2525 11931 
8618 9192 11609 3670 15609 1453 11869 3386 10757 
17642 7575 17519 8637 2547 2628 14085 2536 6303 
8696 14552 4844 14684 6485 6262 4319 3022 17763 
2348 3574 3312 13522 1835 5022 638 2082 1615 
802 3741 949 5389 10688 3690 4669 6647 10342 
11257 2773 697 2890 5773 4566 14168 1132 706 
5445 5240 4192 3600 5861 287 10302 5959 5200 
4812 6893 3761 4637 5625 5008 182 15354 3468 
7921 10269 8835 1101 7283 6747 2234 1498 3388 
1938 12113 6727 8773 6231 1746 4894 7705 1447 
2630 6301 4630 10477 4734 5796 1051 96 3012 
5566 4391 14611 15502 11358 1840 637 10202 17154 
9187 6292 3047 1532 10072 7116 4234 2505 11745 
5092 11187 4758 5232 6149 7582 473 4121 6709 
927 16383 17530 1070 12832 10097 10100 10927 16560 
12854 4705 15489 14069 1140 8047 14940 7623 15665 
3024 8075 11173 8877 6209 3201 17398 2184 1462 
4501 10401 3738 6975 3084 15088 2269 6907 1925 
15997 10626 14991 1582 3696 11006 4318 15442 12536 
8989 7265 2214 16420 6309 1836 13235 6097 1457 
2652 3137 1022 10006 4668 15720 17445 10549 17390 
10493 8197 10702 12963 10739 5663 9747 6018 4477 
11136 9502 5507 11699 11424 143 10618 11625 11089 
15691 15238 1356 153 5582 15767 2703 11653 9885 
8360 16316 7441 10697 8584 158 252 5322 1213 
5386 3442 460 17804 12035 14321 15400 13931 3985 
13862 17129 15007 17695 12121 1651 4767 17754 17233 
939 4361 9884 8538 14102 15395 12533 552 17805 
9607 4076 7735 1247 9462 10848 3502 11827 10916 
12923 9957 5544 5318 1895 15825 6189 9661 14890 
7197 3102 14867 12267 9174 9836 3799 8080 1804 
17847 15616 2611 16816 11476 15985 7460 7872 11671 
2867 1993 8316 14140 1707 9963 17423 3527 9146 
16328 13172 17274 8967 10319 11645 4683 8615 10805 
11842 6465 6392 16972 13258 9211 13316 8688 16901 
3844 13820 13416 5756 16726 5964 11130 12378 4629 
290 12299 1575 9477 16458 10124 9122 12629 4785 
8515 8966 16146 14895 14435 124 3407 6053 14760 
10888 16377 812 9069 15860 7879 8868 9532 10889 
7312 15577 9501 17717 18 10488 5791 3029 6880 
14016 9331 10882 6107 10930 7348 6242 17573 14596 
13723 9972 3042 14243 2598 9759 17067 11397 16670 
11317 12847 16289 13430 10507 7028 122 3767 13179 
10551 2364 1708 3623 3106 17699 7969 14605 8551 
9046 8476 4798 5690 1370 16330 3919 8878 14366 
4877 12036 12431 4940 1549 6959 234 8673 14462 
10423 2383 4748 1467 12179 9103 14423 2553 11272 
2262 14717 10559 621 14942 6573 1870 15811 1195 
1112 6602 2513 11333 5303 1129 3505 10990 9969 
8549 11095 401 5580 8104 11705 13350 9841 11577 
9483 8818 2780 5003 16180 15885 10681 17583 4491 
8736 3706 7206 15727 11118 2006 10500 4623 8671 
14843 4101 6438 1940 2441 13852 8492 2948 5226 
11147 6153 16208 1030 12796 1190 2026 3255 1950 
4612 4325 16008 7140 16981 10847 3486 12169 17622 
13974 5793 10612 6584 11856 1136 4836 4098 4348 
2119 13 12978 4711 15043 13266 7585 17700 4341 
9525 938 4292 7717 7442 921 991 12282 16224 
836 6012 260 10264 6004 15322 4454 6320 8391 
5852 710 5740 1763 11830 5470 10490 3796 4083 
4596 13113 9703 2558 11910 12476 5898 13123 8846 
4432 17645 2638 6593 16098 13027 13283 14720 6927 
10203 10699 11599 2885 1936 3425 4667 2472 11426 
15915 7170 7482 3108 11725 16763 1104 13510 17170 
3276 16683 1448 3966 2844 3766 789 6120 14024 
8645 8341 5748 12440 4304 3240 6658 1412 7700 
3778 11732 432 5290 12642 3231 880 1790 17144 
5794 6057 4642 9605 5150 15627 12373 913 5778 
10335 10135 11861 259 11695 8829 7302 2820 8305 
11979 3278 15595 11536 16359 7362 2678 1218 3572 
3860 2979 6417 2102 9140 9446 2815 2470 14610 
14247 5925 2275 15586 10209 7938 9002 5940 1433 
382 4847 5789 11760 16526 12148 10293 13319 1482 
2687 8577 12761 12546 10518 11586 16815 5211 5572 
9651 10760 4178 5149 2253 4933 10924 15166 11722 
3399 7710 9721 3655 4772 4137 11817 5800 13519 
8511 15307 15938 3148 11436 12723 1941 685 1389 
5440 5642 2998 13184 12493 17484 16748 7070 4453 
7016 15418 10148 2233 10243 9125 12516 4973 6446 
3653 16247 3410 13411 16592 7262 308 10147 982 
9289 9641 10611 10214 8792 16195 340 5144 6792 
11635 118 2881 1377 1853 12377 16129 7770 1760 
16666 7171 16182 15272 13709 2002 11233 692 7055 
9267 2424 12554 5638 1145 13679 11276 6252 4726 
451 8524 17023 589 9625 15721 9416 113 14213 
8087 3325 2992 8121 17813 11200 6229 5102 4006 
6103 14269 1734 9409 15593 3762 1989 13970 12877 
11615 15255 2818 17744 7691 2223 6461 9575 2676 
4542 16693 3780 7590 3589 2330 4586 2329 4254 
9579 17167 575 16529 7192 989 5064 9728 4815 
2346 482 10057 1527 16919 7323 7326 3362 13346 
11467 2504 8182 16197 2227 14347 3663 1372 14311 
15579 11493 3128 5905 3136 6626 10917 9009 14391 
1644 12314 7211 4821 17397 11906 1020 14095 10508 
952 13264 13349 17241 13232 13131 14302 12479 3626 
10205 3797 8427 17262 8397 13890 6384 17525 14065 
9531 15817 16093 10932 8383 14833 7926 6754 4720 
6625 9803 4080 6342 454 14320 16850 2745 11956 
5058 2476 9033 4393 7128 13476 11150 16353 1349 
532 2913 3078 9428 1335 12512 7820 8033 10655 
10357 5739 12996 489 17032 14381 14330 11681 11996 
10309 10519 9962 17034 13397 4819 2092 1228 3376 
1516 9827 13448 14502 11607 8475 4927 14647 11532 
14506 9577 16921 1250 9202 15886 7896 10037 15855 
17676 9078 17819 4969 7886 8525 2813 470 7749 
7568 15450 7645 16478 2622 4049 15380 8912 12379 
4009 796 3292 2595 10846 9623 17580 8470 11883 
17363 4813 9843 296 11535 8662 15117 13333 14931 
13167 2411 7101 16425 209 17473 4699 11627 1358 
3037 13766 1955 17340 7799 7443 2695 4827 9220 
10218 16464 16528 7587 9255 10489 11392 16206 3383 
4443 9527 212 10432 7436 6974 9171 10106 17242 
17843 7486 11679 15101 15463 5521 14007 14370 7816 
17336 14296 14093 11644 4570 7738 2909 5076 12494 
2807 8387 12266 8560 15626 12931 10347 16024 11202 
7654 4870 13132 17784 8528 15426 15893 14978 16844 
2080 5450 11547 4680 15422 746 13977 2601 1263 
7038 12215 5991 7407 10875 9322 16256 11538 1626 
13442 1930 4483 8339 12370 15215 4469 778 17638 
12740 12372 12261 17371 5073 8198 13922 11227 1978 
8690 16637 3564 1875 14840 12930 16630 2236 16936 
1184 14944 10963 12018 7939 10390 551 2093 3688 
13989 6703 16141 9488 4023 1259 14965 1148 6917 
10324 16327 10616 13298 8259 2116 5862 12243 1743 
3059 8486 7591 7531 10680 12781 1221 7355 7207 
9349 12997 5922 17689 6237 7102 3111 4909 5442 
13224 10444 10786 2640 368 15220 14602 10687 11121 
22 2832 8626 15082 9222 16927 15079 13877 16153 
15799 13592 16169 9643 1262 307 6583 7728 16636 
11076 8335 5669 6743 4367 10770 9262 12954 10512 
12746 15234 10756 1156 4826 10874 16618 12302 2763 
14770 6151 13555 15456 12257 397 39 7551 9715 
12527 8596 10294 15806 12730 6490 10590 5899 12578 
3618 16535 11098 16838 16943 10666 3371 3044 1878 
1108 12143 17729 9147 8833 15045 15403 13163 13621 
8680 11393 10107 5670 1245 11032 6718 17696 3928 
9082 11774 12369 55 14196 9557 15366 15123 17059 
2106 4110 1126 7507 581 17271 10275 6403 4105 
13372 4805 14505 9112 16643 2243 6340 7369 8697 
1432 7030 7118 16012 14352 15776 4837 10130 13892 
9268 16514 6607 17219 15680 10706 17443 13370 10242 
2193 8112 7202 5818 1976 10986 10484 15689 11255 
13638 17324 6334 12194 5848 3443 10900 9086 9387 
3064 1781 2469 13158 5972 998 6514 15163 2768 
1437 4658 10650 10372 11887 15382 10278 17503 11938 