# vtk DataFile Version 5.1
Generated by LIGGGHTS
ASCII
DATASET POLYDATA
POINTS 17850 float
-0.0113037 -0.0236846 0.00184062 -0.0207295 -0.0139657 0.00182982 -0.0246076 -0.0103843 0.00179868 
-0.0244332 -0.00778476 0.00185729 -0.0075624 -0.00295904 0.00189586 0.00438759 0.00958275 0.00187169 
0.0261507 0.013449 0.00180857 0.00617141 -0.0286458 0.00184272 -0.0120649 -0.0261257 0.00180709 
0.00649176 -0.0248642 0.00228983 0.007928 -0.0244122 0.00181994 -0.00066459 -0.0244932 0.00190894 
0.00028174 -0.0250467 0.00207062 0.00521845 -0.0251489 0.00194818 -0.00236143 -0.0233615 0.0017964 
0.00281081 -0.024465 0.00184557 0.00681979 -0.0227323 0.00179941 -0.0146417 -0.0228165 0.001841 
-0.000354442 -0.022482 0.00183657 0.000926401 -0.0217794 0.00184485 0.00338745 -0.023469 0.00181341 
0.00536485 -0.0231862 0.00186838 0.00831538 -0.0224729 0.00178059 -0.0153681 -0.0215765 0.00188412 
-0.013127 -0.0226364 0.00186315 -0.00808668 -0.0229161 0.00182793 -0.0053335 -0.0232581 0.00183077 
-0.006429 -0.0209979 0.0018458 -0.00115756 -0.0210346 0.00179617 0.00133285 -0.0207341 0.0017942 
0.00350501 -0.0208615 0.00181928 0.00674642 -0.020558 0.00181883 0.0142359 -0.0209772 0.00212745 
-0.0204167 -0.0202614 0.0018138 0.00409714 -0.0198564 0.00183398 0.0132145 -0.0192274 0.00189497 
-0.0159203 -0.0193178 0.00187654 -0.0135845 -0.018658 0.00181278 -0.00945312 -0.0192886 0.00177791 
-0.0067883 -0.0190624 0.00205813 -0.0199046 -0.0188596 0.00184459 0.00639262 -0.0188248 0.00178367 
0.0083662 -0.0186309 0.00178178 0.0124279 -0.0176126 0.00184688 -0.01487 -0.0182592 0.00179375 
-0.0131756 -0.0175824 0.00187476 -0.011984 -0.017561 0.00190064 0.00582388 -0.0174885 0.00196095 
0.00956116 -0.0176334 0.00188342 0.0156338 -0.0176016 0.0017829 -0.0237991 -0.0173054 0.00183146 
-0.0160197 -0.0167434 0.00179268 -0.0107935 -0.0173099 0.00185885 0.013064 -0.0166175 0.00195904 
0.0179492 -0.0159354 0.00206941 -0.0247039 -0.0157653 0.00189194 -0.016642 -0.0158045 0.00186187 
-0.0150226 -0.0163469 0.00182729 -0.0132069 -0.0164694 0.00177778 -0.012157 -0.0161765 0.00198439 
0.00881844 -0.0168143 0.00181579 -0.0249343 -0.0145944 0.00186657 -0.0227381 -0.015526 0.00186713 
-0.0203484 -0.0152311 0.00190352 -0.0184589 -0.0152055 0.00183476 -0.0155951 -0.0154569 0.00181957 
-0.00534573 -0.0153547 0.00189854 0.00919499 -0.0155561 0.00181265 0.010784 -0.0156169 0.00184734 
0.0139382 -0.0154595 0.00186639 -0.0258826 -0.014078 0.00182845 -0.021607 -0.0153145 0.00180776 
-0.0173653 -0.014953 0.00183092 0.00584448 -0.0155174 0.00176749 0.00717733 -0.0153289 0.00185035 
0.0253424 -0.0148241 0.0018895 -0.0228346 -0.0138345 0.00198532 -0.0163023 -0.0146284 0.00186021 
-0.0117934 -0.0133205 0.00182478 -0.00848604 -0.0133693 0.00181585 0.00378974 -0.0138455 0.0018433 
0.00618086 -0.01368 0.00185929 0.0214222 -0.0142848 0.00209335 0.0217584 -0.0155806 0.00195949 
-0.0257351 -0.0127191 0.00180683 -0.0158646 -0.0129916 0.00183695 -0.0148223 -0.0134069 0.00189609 
-0.0136037 -0.0135528 0.0019162 -0.00672589 -0.0133396 0.00183694 0.00681039 -0.012752 0.00178376 
0.00940752 -0.0134094 0.00191654 0.0259816 -0.0138303 0.0018707 -0.0235581 -0.0128493 0.00188724 
-0.0215325 -0.012084 0.00193825 -0.0206057 -0.0126414 0.00184846 -0.0185498 -0.0126225 0.00183826 
-0.00881139 -0.0123641 0.00198007 -0.00466082 -0.012613 0.0020727 0.0011055 -0.0127586 0.00181138 
0.00423957 -0.0126855 0.00179078 0.00596849 -0.0120921 0.00181064 0.0129262 -0.0133095 0.00185156 
0.0139597 -0.0127933 0.00183798 -0.0203323 -0.011606 0.00190522 -0.0144795 -0.0123314 0.00184757 
-0.0133607 -0.0121823 0.00186644 -0.00599475 -0.0105966 0.0018307 -0.00309966 -0.0120452 0.0018241 
0.0230702 -0.0128116 0.00184444 -0.0236917 -0.0110051 0.00177692 -0.0192706 -0.0112601 0.00183954 
-0.0105127 -0.0110242 0.00179148 0.00614375 -0.0104477 0.00182547 0.0078931 -0.0111289 0.00182558 
0.00893169 -0.0115813 0.00186607 0.0100216 -0.0122032 0.00188347 0.0158801 -0.0117941 0.00194237 
0.0181771 -0.0117974 0.0018398 -0.0212061 -0.0100403 0.00183121 -0.0177245 -0.0102373 0.00187755 
-0.0167689 -0.0114408 0.00179333 -0.0142517 -0.0112833 0.0018922 -0.0123032 -0.0106431 0.00190876 
-0.0115627 -0.00971055 0.00183872 -0.00954914 -0.0104701 0.00180123 -0.00812301 -0.0102122 0.00188392 
-0.00489833 -0.0104029 0.00184443 0.00501 -0.0100458 0.00182611 0.00956574 -0.0101493 0.00192362 
0.0125585 -0.0118924 0.00187803 0.0220932 -0.0107349 0.00183983 -0.0277853 -0.00977525 0.00182697 
-0.0244174 -0.00925271 0.00190936 -0.0101297 -0.00937548 0.0017966 -0.00239463 -0.0102193 0.00182117 
0.00822123 -0.00940914 0.00183177 0.0127502 -0.0108054 0.00179853 -0.0260017 -0.00689174 0.00186981 
-0.0129475 -0.00913242 0.00185423 -0.00321779 -0.00944213 0.00188552 0.00924589 -0.00910693 0.00186628 
0.0127062 -0.00964202 0.00185048 -0.0234549 -0.00839633 0.00186908 -0.0156255 -0.00939111 0.00192579 
-0.00873956 -0.00770842 0.0019345 -0.00719147 -0.00889313 0.00183682 -0.00168249 -0.00913467 0.00179756 
0.0263953 -0.0080357 0.00183885 -0.0213755 -0.00758041 0.00184084 -0.0182947 -0.0072748 0.001863 
-0.012617 -0.00734687 0.00199956 -0.0104497 -0.00750995 0.00192613 -0.00756337 -0.00763996 0.00186379 
-0.00277649 -0.00806373 0.00186863 -0.00154836 -0.00749032 0.00182903 0.0136102 -0.00866055 0.00176521 
0.0165387 -0.00820507 0.00184856 -0.0213853 -0.00598537 0.00184765 -0.0159538 -0.00688941 0.00196435 
-0.0114892 -0.00695407 0.0018675 -0.00661281 -0.00685428 0.00188066 -0.00329741 -0.00695918 0.00192832 
0.0146097 -0.00623385 0.00188147 -0.0189113 -0.00606732 0.00185892 -0.00859674 -0.00615448 0.00198223 
-0.0073672 -0.0060101 0.00183268 -0.0055128 -0.00600296 0.00198203 -0.00411627 -0.00612085 0.00200172 
0.0134743 -0.00585234 0.00186421 0.0235691 -0.0063494 0.00190477 -0.0245993 -0.00589754 0.00180024 
-0.0139147 -0.0048905 0.00183211 -0.0102981 -0.00559957 0.00187265 0.0190195 -0.00514316 0.00187832 
-0.0265491 -0.00422047 0.00182736 -0.0227514 -0.0043175 0.00182426 -0.0210415 -0.00492148 0.00190894 
-0.0120288 -0.0043832 0.00192344 -0.00701115 -0.00493552 0.00185017 -0.00460435 -0.00368847 0.00186431 
-0.00218312 -0.00401763 0.00189819 0.0138419 -0.0040076 0.00177102 -0.0156443 -0.00356056 0.00204388 
-0.013118 -0.00315954 0.00188782 -0.0109041 -0.00402 0.00193173 -0.00572787 -0.00375628 0.00184295 
0.0127839 -0.00411598 0.00182113 0.0176679 -0.00368276 0.00184267 0.0202028 -0.00332681 0.00178876 
-0.0286847 -0.00342011 0.00181592 -0.0217292 -0.00276406 0.00184977 -0.0198275 -0.00291688 0.00183079 
-0.0182912 -0.00283399 0.00181015 -0.016061 -0.00252798 0.00189858 -0.014157 -0.00271281 0.00182814 
-0.0121215 -0.00265468 0.001899 -0.00868721 -0.00331728 0.00200672 -0.00130208 -0.00213682 0.0019853 
0.00663213 -0.00411636 0.00192924 0.0120062 -0.0031958 0.00190776 0.0168837 -0.00258743 0.00184213 
-0.0250635 -0.00238844 0.00185393 -0.0237143 -0.00246493 0.00190728 -0.0176161 -0.00203411 0.00179677 
-0.0166389 -0.00163937 0.00179434 -0.00889837 -0.00218559 0.00187232 -0.00546212 -0.00225854 0.00189669 
0.0132433 -0.00240921 0.00189816 -0.0220271 -0.0015109 0.00185612 -0.0183301 -0.00126555 0.00180876 
-0.0145158 -0.00108327 0.00179466 -0.00670668 -0.00115263 0.00194434 -0.00394786 -0.00148528 0.00183295 
0.011325 -0.00117258 0.00186651 0.0124906 -0.00098014 0.00187521 0.0143061 -0.00199471 0.00181758 
0.0161952 -0.00171657 0.00187497 -0.00958073 -0.000803661 0.0019489 -0.00572669 -0.000639806 0.00179107 
0.0136222 -0.000478835 0.00200925 0.0159992 -0.000564316 0.00186813 0.0285188 -0.000548601 0.00186133 
-0.0216725 -0.000396993 0.00185533 -0.0196621 -0.000123064 0.00180518 -0.00755147 0.000408634 0.00183903 
-0.000102863 0.000298334 0.00210876 0.0135046 0.000728979 0.00190021 0.0193709 0.000416956 0.00188621 
0.0205964 0.000228426 0.00189821 0.021802 0.000472454 0.00179949 0.0276251 0.000186862 0.00179067 
-0.0279554 0.000647953 0.00188495 -0.022243 0.000703969 0.00183898 0.00851798 0.000601567 0.00185956 
0.0146107 0.00131483 0.0018643 0.0182848 0.000705094 0.00183138 0.0212189 0.00148087 0.00197448 
0.0258836 0.000706509 0.00181336 0.0282335 0.00163677 0.00180427 -0.0293271 0.00113099 0.00185091 
-0.0202589 0.00179302 0.00179055 -0.00917757 0.00144037 0.00186891 -0.00801671 0.00179278 0.00185537 
0.007325 0.0022722 0.00181587 0.0169253 0.00051853 0.00194945 0.0250113 0.00158935 0.00186756 
0.0292128 0.00240786 0.00186935 -0.0270926 0.00213614 0.0019719 -0.0252838 0.00181101 0.00183073 
-0.0224306 0.00257957 0.00185808 -0.0212423 0.00237798 0.00187741 -0.0154013 0.00277248 0.00185707 
0.0201023 0.00142324 0.00181234 0.0225797 0.00216343 0.00184904 0.0277833 0.00276888 0.00191971 
-0.0241278 0.00213934 0.00178245 -0.0211733 0.00354245 0.00179127 -0.00876453 0.00381271 0.00180404 
0.00725677 0.00336241 0.00182179 0.0132562 0.0031561 0.00178437 0.0171275 0.00276023 0.00186083 
0.0279429 0.00394047 0.0018597 -0.0218895 0.00442163 0.00182376 0.0251117 0.00449611 0.00179163 
0.0290804 0.00462679 0.00181413 -0.0272157 0.0047959 0.00180041 -0.0131228 0.00483095 0.00194638 
0.0057666 0.00470158 0.00182606 0.01783 0.00521251 0.00183882 0.0275315 0.00506069 0.00185304 
0.0039295 0.00573656 0.00200089 0.00519192 0.00568372 0.00185928 -0.00874905 0.00706624 0.00177185 
0.0055134 0.00674599 0.00177324 -0.0100887 0.00770217 0.00184171 -0.00180795 0.00731843 0.00206764 
0.0016524 0.00780331 0.00183074 0.00440898 0.00707878 0.00182147 0.00663067 0.00750493 0.00176921 
0.0283948 0.00764696 0.00175595 -0.0238988 0.00747325 0.00181942 -0.00940911 0.00919767 0.00184834 
-0.00036355 0.00876695 0.00183792 0.000592721 0.00761899 0.00182114 0.00398564 0.00852173 0.00187533 
-0.0227045 0.00891529 0.0017993 -0.0196687 0.00835214 0.00179864 -0.0124458 0.0100847 0.00198759 
0.00552517 0.00946546 0.00195905 -0.0236522 0.00950706 0.00187991 -0.00967711 0.0109345 0.00180435 
-0.00183305 0.0102292 0.00182367 -0.000507106 0.0104382 0.00184039 0.0014989 0.00959893 0.00185487 
0.00370406 0.010415 0.00177454 -0.0213193 0.0100148 0.00180132 -0.0116558 0.0107448 0.00178352 
[...]
POINT_DATA 17850
FIELD FieldData 6
id 1 17850 int
3914 4227 876 4103 7491 2981 8930 1905 4982 
12026 5364 9747 5161 6945 5019 4965 9931 1778 
8954 3442 9858 7873 11218 9239 10269 3609 3523 
1356 3840 10365 6470 12611 403 8588 8075 9638 
8088 11769 11228 4591 69 5379 5954 8331 10281 
7348 1408 2503 3215 16533 5756 11588 12838 14872 
9100 1454 7646 10479 11948 4683 5002 10861 4283 
7319 3186 11951 86 10860 6269 11085 6397 10950 
5880 6366 7271 2019 1392 9258 2912 552 8490 
3194 10471 2942 5623 9489 8611 11904 533 6599 
1435 4560 1325 3746 11684 10638 17292 3692 8989 
11329 464 3097 11556 5306 4165 2459 9665 2958 
11046 12205 10599 6585 5409 10396 8019 9341 7903 
11421 5580 4228 5390 6453 8581 6419 6786 2734 
4198 8413 5487 460 375 813 1040 12519 14614 
11374 5665 10540 11853 3392 5291 8197 8935 7668 
1391 12460 11879 5875 6008 2707 3796 1118 8542 
1195 12001 6241 8248 6344 5585 8613 8032 7170 
7112 4398 1203 5219 7422 10795 8011 6052 6492 
4083 546 9197 4092 5105 3103 8073 3333 4770 
1557 12509 2460 3458 2143 8709 10028 6336 886 
3560 3687 11432 5890 4493 3472 10652 7701 14124 
6866 6923 4597 1960 1977 12017 6285 3178 10723 
8140 3977 5167 5527 2292 3485 1199 8450 3727 
9346 3094 911 131 1644 833 1687 11600 2784 
1472 207 3284 28 4408 12772 1722 5343 4133 
1238 9781 4157 3260 4985 1591 11467 2501 5610 
4856 5026 3615 2394 673 8204 1912 1201 11859 
3157 1353 10983 11923 5081 5940 3586 5444 3619 
1602 301 4548 5137 3655 4238 815 6156 7277 
10974 103 5660 6752 1863 6193 5926 8095 6113 
12700 4825 82 9996 5713 4866 5863 6243 5247 
3742 1874 9428 3383 4888 4010 11865 471 5807 
750 6605 5472 1432 368 5600 1837 764 3604 
6360 5307 6381 747 5440 6461 3534 1384 2843 
2640 8369 11062 720 4480 935 6841 11731 3247 
6405 6088 2507 3638 3095 6905 4771 4746 12705 
5635 4803 12535 6721 11354 4334 6892 4638 5900 
532 5871 4611 11128 12330 7993 5637 313 10703 
7550 7329 9080 4255 5596 11829 4749 12425 1437 
6254 12024 8702 572 11980 7996 3605 5389 3130 
10382 6491 5968 12081 4374 3848 1812 206 4497 
9622 6089 5912 6509 3063 5755 1643 6043 9672 
10372 4289 11496 4166 2866 3331 196 3996 1758 
6659 997 4669 4918 2149 2545 957 864 473 
11328 1021 927 3311 13033 10477 1368 7316 2883 
4470 6553 10202 7828 10318 11198 12758 2313 4489 
6084 4593 2739 5832 2747 2952 6412 9975 1732 
4845 9655 11250 6431 5078 2339 9941 8370 4878 
10791 11864 2112 2474 97 13508 2505 9872 7877 
9952 16058 14915 12668 3528 243 6834 6929 1554 
3714 6907 9117 11943 4484 7243 10536 1889 5082 
2351 6242 9690 2575 7054 9539 601 9187 3732 
13856 10815 2118 2691 4816 5181 7928 974 11144 
8568 7019 3449 2835 9721 1721 5490 12219 11751 
4253 5086 6860 163 12630 6592 5913 8536 5120 
8231 3881 1995 4273 6205 5975 11652 849 17376 
9912 6195 8885 9151 15505 9656 2809 6317 5530 
2656 1141 4406 6612 8892 2163 17584 1999 6101 
4292 2028 11736 7872 2948 38 1489 116 6104 
1520 13294 9957 3985 8996 126 11041 7156 5876 
6898 9482 9032 5505 17021 10763 12629 14319 3510 
6885 7153 10559 7485 10354 8404 8445 2063 10906 
7958 6602 7134 17802 13108 955 12042 10936 1836 
12424 6391 15175 1833 6931 1022 867 13043 9380 
3308 5465 1103 1272 4631 2839 16864 3813 11905 
4371 45 11064 9553 9583 12670 5370 1218 7079 
8689 3008 12789 11480 17240 4883 7255 13495 11242 
6014 7670 15630 873 4429 6437 5997 9777 11662 
193 2670 11711 11272 4102 7679 2224 1510 9142 
675 8672 2265 11427 5697 4361 11677 12365 437 
6028 8507 9795 11231 674 6109 3955 6256 2950 
7684 9137 8641 11462 10419 10349 9198 1131 1675 
5985 6737 11345 6880 5690 9467 2861 11660 2439 
10700 3836 5801 10958 10962 7987 9616 2178 9954 
3592 2846 625 597 10736 15509 7846 1731 621 
6213 8783 2650 5134 6351 10586 1811 5590 3029 
8245 10408 2679 9999 10119 10162 3461 1049 11856 
11806 2987 6695 2269 984 3646 1450 5497 1074 
3811 1158 1264 1181 11848 7675 2910 1028 8982 
5033 11410 10102 8595 298 2944 4417 12752 11647 
2316 4702 4232 10490 10338 11278 16834 9370 8004 
7131 351 12297 6810 1810 5597 2354 3106 11572 
3264 3820 4282 2750 6799 563 4379 1750 8398 
7190 11703 9168 9700 7504 2708 1197 7361 6547 
901 4955 320 1130 1873 2926 11603 9933 4587 
12482 6584 5907 5794 4917 2214 2364 3487 4748 
2215 10279 11593 3753 1620 2805 1027 9407 1048 
4101 5752 7740 3226 10399 7377 7911 12006 9154 
3262 12566 489 8688 5999 1002 7849 695 2808 
10387 4963 7260 4115 4462 2011 1728 6601 11207 
6158 6639 6540 5493 13020 9762 11229 3018 9499 
6882 5352 6189 10824 328 17471 3146 3033 2155 
12649 2955 525 1971 11708 6523 3229 2441 11035 
6094 5574 260 5795 133 5150 4161 10920 2881 
7394 5201 288 10969 9730 1654 3486 169 8023 
2738 3009 10345 4201 836 118 2960 1847 4178 
2099 7784 10459 9009 1527 979 12104 3353 6708 
938 4605 3123 3180 4595 5537 1814 156 6072 
12420 10277 6220 2188 2220 176 6670 6473 4639 
5612 2212 811 5221 1393 1549 5414 4783 3779 
10883 3652 834 6117 11230 1418 8942 6079 6062 
6779 3378 2600 582 6329 1204 340 6740 3873 
11378 820 767 4729 6096 6483 842 3647 8277 
11132 3072 2442 1072 1310 9140 12364 4565 3147 
1953 2830 4098 5176 3531 1980 987 2642 6172 
11554 205 6711 5424 3283 6221 4765 10519 11654 
12239 4348 6851 4407 5015 2922 1737 4139 5149 
4169 5957 768 3578 6543 5760 254 6463 6976 
7196 7232 4572 5350 4410 3871 818 2056 4558 
4939 4919 4535 2208 4130 5516 6660 6300 4502 
2513 2574 707 4624 4206 135 2754 2539 9667 
172 3205 3269 2928 2996 10289 5373 1136 4717 
4339 6767 6725 5443 1403 8279 11985 3043 4071 
4800 5998 9554 4644 2828 1402 2344 2464 7579 
4525 4912 4239 1660 5673 1858 2530 10890 1786 
10751 1313 4829 5879 945 6661 3266 5336 4500 
5700 2306 3759 4089 5652 10127 3918 3188 308 
3688 6054 10209 4225 641 2266 6169 6472 1838 
12470 1182 6750 5030 1901 3983 9289 5893 5593 
3927 575 3307 1102 5346 6225 3729 150 4933 
3889 10764 5421 7105 4619 9787 5476 3170 4254 
5147 3134 4036 952 3640 4475 5945 1662 5869 
9774 2847 1400 474 7 2141 798 1372 14 
5655 11590 4436 7847 11596 5285 3760 3164 3422 
6691 5559 7290 6122 2432 3078 4731 2211 4124 
11036 4545 1529 1525 2601 9756 12608 2850 6274 
602 3823 3707 5693 998 3965 12567 4575 11363 
6512 2538 10634 5351 5525 10263 11216 5435 7946 
314 562 1124 7340 1519 5431 6092 136 2595 
9126 9013 8031 9797 9541 5388 271 6722 5344 
2236 4922 132 2972 2624 5802 10852 8565 6151 
2001 1592 844 2320 3618 589 4114 10738 632 
2002 2363 521 5658 996 6055 3516 5294 9989 
6260 6063 5724 5049 8473 5273 201 9521 855 
3961 1931 3545 4503 14391 3839 8627 11190 2589 
11182 56 10758 3184 5289 2765 154 11614 10029 
4541 9266 1793 6514 4416 4447 6862 1537 3334 
4454 6350 6140 6003 9175 1382 5636 10191 2079 
7334 2586 1684 5402 523 8111 1170 3053 1668 
6744 6373 2548 682 3709 5848 3303 209 11941 
10090 9192 7568 5561 5629 11417 5311 3981 827 
3979 15837 2986 11781 39 4055 4598 3325 10058 
3263 7621 644 6766 22 8991 1996 2832 9010 
6029 13173 5453 4067 1516 6684 629 5156 11998 
8508 6668 802 1894 1961 11399 1039 5297 9697 
4471 4518 11630 7760 8922 7209 5694 3639 7526 
10524 6991 9804 1745 10426 4095 4946 5577 1518 
3654 6718 3443 1160 10704 1031 7335 3245 2842 
1865 1564 1984 6294 5616 10494 8968 5541 8355 
7844 3769 3098 4658 3165 326 4926 5496 7395 
10039 5956 729 4158 3642 6214 9298 2932 4844 
4058 8843 1211 12459 9181 12020 6262 1661 4891 
2357 8946 6087 1618 4243 3989 233 10565 10328 
9593 4326 352 5228 3408 5108 1615 3481 1716 
6567 3090 7249 5482 11961 8618 7436 10881 716 
68 542 2768 3427 4740 2196 5198 1488 5098 
4826 4719 769 4808 10675 3971 2345 4837 9487 
2557 11355 3176 5711 4663 2352 5982 4627 3532 
8953 9919 2536 1255 11868 6302 916 5608 5718 
299 2209 6887 2311 3666 3116 4401 4425 4498 
10757 1029 3507 2172 6303 2307 4861 4797 4899 
2583 5687 11866 283 5022 5207 5515 2970 9389 
6694 4911 1788 2671 3312 2393 12469 5045 3052 
5011 3657 7619 3216 530 4839 11934 1202 5039 
4048 1963 2286 4474 2388 1923 15834 573 5023 
3444 7004 4583 5374 5224 4057 14074 6968 3105 
5455 1041 4231 559 12153 324 202 7917 1316 
3258 3628 10245 11484 7822 7751 2931 1119 9003 
6451 8090 5265 297 8517 793 10891 10691 8750 
8988 8676 1951 2867 4430 3099 7371 12973 14253 
13434 5345 8837 9886 8190 4021 4974 12495 5380 
1478 1147 6815 2225 14817 12505 16365 11348 7257 
14639 8882 4690 11669 647 6522 3084 11544 7320 
3590 5751 8423 8824 483 17553 4485 1317 8096 
8439 11174 4788 1026 5708 2915 3048 158 2058 
1546 14881 7198 12794 11451 8969 5767 10695 11058 
7197 5101 4377 12681 5036 17445 3288 10903 15853 
17147 10069 3777 5394 10649 11527 17045 12159 10151 
7465 7858 2089 1494 4806 4351 12828 2550 8925 
9282 5539 13629 8046 7357 11167 1030 10549 1213 
8518 14849 4068 12347 15996 4005 2900 3151 912 
4798 9921 8860 7908 10507 9120 10177 14113 16142 
15758 1680 7991 1676 9660 3674 11907 12727 3257 
10305 11366 8614 8222 7045 9353 5929 5941 14703 
6771 5100 8311 7665 14822 6521 9634 9735 7791 
16224 9801 11957 6904 5649 7272 15500 10169 4358 
2455 6555 8586 2010 1704 11563 10377 12286 8131 
7717 10766 10610 11047 2259 5368 13617 15474 7451 
6255 12259 2098 6364 5434 13871 11476 9420 7189 
10013 5568 4226 9761 6573 17640 13559 17226 2700 
5377 12467 9419 15828 9775 14573 12855 3743 3786 
2097 5604 3149 2091 7724 14368 7148 79 4557 
10398 3627 758 4667 13858 12449 3952 12289 10257 
887 3101 9887 12588 14490 2967 12384 11292 2649 
11968 15140 5935 14053 4886 5562 8788 15402 7341 
10271 13641 939 2065 9640 8772 12315 9476 5328 
7138 2276 907 5419 10170 11319 42 2680 8799 
3704 9807 8000 12836 8718 6757 10261 4563 15508 
15128 7639 3142 3394 9179 5486 9184 16258 4622 
8179 7513 904 11915 5157 6416 10927 12214 9681 
6915 5589 2281 7284 7442 2509 12563 2951 15605 
11617 8320 933 6136 10095 11912 4781 5839 5903 
12661 8828 3407 5783 10813 6664 7804 5371 2164 
4643 3401 11916 8285 4700 10487 3846 16656 13160 
8363 3833 8664 3049 2648 9104 7980 10493 3497 
6508 9257 1466 7000 16568 8900 8109 11147 10690 
9867 7097 6641 10370 1708 6817 2657 9868 11814 
11744 10213 8593 1531 1627 3622 3900 9806 1530 
3433 462 9113 9083 16933 17603 13572 16078 5429 
751 11561 2925 5859 2906 522 12680 12556 8624 
9581 8492 7462 3705 2535 7242 5695 11273 2156 
1763 6772 4414 10087 10061 1099 9713 195 6002 
961 9786 5085 6804 1337 5111 5308 5691 3576 
11482 17332 10083 10973 789 11143 9855 12756 5598 
6015 1290 12138 5902 3922 1705 8453 6542 10625 
931 9483 1943 1887 339 6177 2160 10924 1783 
2359 604 8272 7975 190 6197 3054 2031 5538 
10395 3775 1997 6844 3379 245 280 11338 4835 
426 2346 2802 12195 12377 9651 9724 6710 6559 
6378 1321 331 11061 1159 2603 5770 10232 5296 
8144 12476 9945 1376 6557 4302 4126 12507 9719 
8520 11186 1340 3237 4296 1206 3567 4968 12171 
4991 8030 3082 14971 4707 9153 2918 4836 2899 
3903 5725 1801 11661 1734 12651 1650 6035 4199 
831 5 3885 3987 5099 2953 5267 7482 667 
6188 5243 4716 1685 3683 161 6824 2874 1803 
11604 4332 5117 7212 3910 968 6888 488 5483 
1604 6161 3238 11778 10612 4596 7157 11418 2558 
2444 433 6471 1956 5789 7747 7920 7375 2983 
6025 2305 6271 6531 10036 1430 5040 4079 948 
878 11958 12580 3677 1773 3990 5227 2619 3437 
1762 1617 1497 4778 4607 4779 5358 7240 6232 
4235 1122 1988 1560 4041 2858 3828 1025 140 
4279 5754 10918 259 6587 739 2541 4087 6339 
2803 2120 3925 2527 1061 360 569 3400 14656 
4412 1055 10004 2609 4372 5451 4751 12314 4615 
5721 5933 2776 4277 3863 9178 7171 6186 8290 
1303 3108 8818 4491 5489 5143 1145 5965 80 
1880 5819 6393 11145 7590 12744 394 712 1514 
1944 3240 2329 5949 16035 5847 435 10250 7448 
4040 6626 1854 6754 1229 5840 12368 6246 2077 
6690 2254 8303 1741 5726 1278 6865 2687 6577 
1226 194 3403 12064 3447 9809 11732 2381 475 
5733 3797 4517 72 4197 8866 4162 12477 2360 
3587 1567 11689 3214 5970 5148 3435 3946 2486 
2435 7049 3316 2787 5303 1015 9626 5132 1234 
3393 6825 1572 4435 9157 6462 11979 6013 342 
3179 2237 6240 884 5317 2818 4953 392 3253 
6230 2820 10517 6652 9586 1939 3920 44 5073 
11495 8361 11845 4884 1248 3313 4304 29 752 
2415 3773 9254 4875 8810 5481 112 1886 11034 
2923 12222 3661 4155 5793 6753 2433 1235 2470 
3319 4580 2299 1050 685 5572 947 7561 100 
5573 7610 4527 2804 61 5701 11426 2227 4543 
3663 1152 5326 10311 11565 7951 12604 7745 12090 
1208 5254 9111 3421 346 3529 10844 2409 10066 
10114 6020 8366 8758 9456 4032 11860 10839 4990 
9400 2223 7018 8841 9883 603 2885 3277 4628 
11430 5436 557 1967 8740 6501 8107 11728 11794 
7691 4415 7443 7080 4582 12643 9659 10259 3554 
3166 6717 2293 10462 6683 3899 12723 3342 11486 
2799 11648 11175 1134 6006 9167 9410 2662 5013 
3089 520 1183 3556 3372 9565 7285 5064 2452 
2310 2796 11801 9005 10252 9599 1861 5882 4012 
4567 8229 3068 16 3856 2062 5043 5003 2092 
10709 1882 6499 2456 1850 4099 16333 7654 11153 
11735 12451 4789 3805 11203 3371 6427 9196 1476 
1 2792 6447 11265 16054 2569 8199 3521 4031 
2610 3282 3220 4237 5898 6603 4259 1576 3119 
17061 10608 1548 10012 11037 11511 8778 3418 348 
3464 10552 8486 5678 6832 67 3650 6527 5901 
3542 570 4091 9635 1011 6067 4248 9596 7575 
6743 2146 6016 2840 138 17264 2371 14886 10792 
8442 2053 5601 6411 4832 6340 2893 6099 10687 
6369 2482 960 3345 4578 12372 3019 11359 4330 
389 9533 8733 10436 5972 1802 5295 4290 10476 
2032 6200 1972 692 7133 6494 2014 2872 5899 
5122 2322 12639 8998 11243 6665 2913 4329 7251 
11547 5984 5093 4766 5461 239 1625 2193 35 
9623 2390 5091 9445 8970 11023 4951 1425 1857 
6370 8608 12578 9150 2468 4009 12479 2337 10242 
12183 397 12584 9205 10219 8242 2992 1105 4794 
2025 4081 5811 536 485 7614 12163 5381 1245 
64 6974 12288 9318 4703 5905 5547 8308 3347 
7838 6946 6426 6009 7339 15621 7012 5054 6575 
2587 2332 6622 4177 1422 10571 7372 1374 2816 
1976 5735 5627 3199 8297 7972 4301 16764 3826 
3454 650 2639 17580 9663 2372 10994 4952 1569 
15775 6132 1363 2369 6520 5878 3207 1453 2291 
88 5155 4019 8552 7981 3555 2072 10182 10968 
1585 6634 10451 10624 6948 3730 1876 7483 6765 
493 7445 4245 1781 6133 4555 2661 12785 7228 
1261 1084 6414 4376 1243 5488 10851 3580 6268 
12627 16615 7499 5906 1446 3745 4271 6157 11441 
7425 356 1586 5680 9991 4925 11140 8894 7768 
4834 6108 2239 2081 1573 8646 7870 4805 5458 
2542 6034 12675 2067 66 70 3093 2579 3695 
2834 12655 417 9 616 1818 2559 1302 4876 
4269 1962 6648 11785 1568 1252 5087 3942 6347 
888 1696 6468 4741 628 848 1655 754 4249 
738 566 3740 425 266 4508 6090 6900 5079 
852 6231 1014 6215 9773 5784 1076 6448 9340 
127 5675 265 3024 5868 2773 3233 785 3169 
4679 4075 4168 4893 3994 11070 11792 14626 8178 
12597 2030 8484 1441 5274 7653 8301 3248 9173 
15708 14390 4355 3596 4117 3306 4215 1344 14389 
10270 6250 4659 13112 7948 17013 9459 7648 11571 
10533 1140 3183 3767 4637 275 15088 10009 6475 
13949 5001 10411 4479 4735 4635 7389 7965 14832 
11812 1092 16439 10556 13516 7602 191 10665 12273 
11178 9611 3140 6363 5423 3203 558 6727 6466 
10464 8051 10499 17063 13305 16608 9054 13805 8793 
1828 12515 11745 5240 4234 6571 2423 12198 14689 
14737 9811 17412 16678 11016 11808 14199 14069 8779 
10001 11424 15665 3911 5051 2397 11306 13273 15235 
5826 4464 10453 9470 7810 3819 6075 4676 290 
12739 1845 5197 14071 9233 2168 10380 6914 16309 
16388 8157 11113 9901 13103 13357 13620 17360 12320 
3102 306 12632 14902 8726 8291 13711 7523 11314 
17739 8538 8136 9922 11959 9913 13674 14900 12942 
12190 12771 4976 8773 3137 3161 4661 4764 4477 
9174 5246 3959 5741 12483 14913 14722 14582 7095 
8273 5138 9567 6201 14035 16856 7823 3603 9542 
11435 6011 7431 11029 12702 15731 15423 10531 13744 
8353 16287 15860 16749 7879 5151 1574 6380 6130 
11434 7338 17462 14432 3428 11362 12998 17735 13054 
6983 14504 12299 2532 4877 6129 1968 10828 12825 
1913 11131 5891 2124 8394 9835 16813 14760 9661 
14752 4588 5446 6669 300 5542 9228 14615 11201 
3662 9927 15674 10750 16884 15752 15345 10136 11949 
12568 4648 10134 3810 4252 6805 15192 13734 6497 
1535 2528 10081 11104 401 17622 13219 12097 11599 
12114 6719 991 13829 14560 15324 4340 9040 14313 
10856 14482 2489 1587 13802 164 10443 13270 15173 
9405 990 8358 2810 9904 1893 6984 13245 2151 
1045 15610 15570 15170 11055 3887 2884 6438 9066 
11723 11717 7235 9182 4562 4666 2213 6981 7880 
15193 16934 2289 3964 10043 8819 11503 4916 8448 
5581 8579 10914 15075 14768 1776 7403 10908 7586 
15134 12491 7555 11454 11444 11566 10800 6672 4397 
8559 4295 8130 8667 12517 4323 3467 8606 17224 
13252 10248 2811 12665 11873 9099 12777 9836 6102 
441 1501 5703 13269 12434 3032 4833 4601 4224 
2408 1636 8832 7236 9388 13190 12168 8771 11033 
11043 5061 3042 350 17414 11675 8221 3780 5218 
10056 10823 9060 9006 16801 16552 10698 15884 14780 
6460 7583 7617 11534 6135 2703 1925 1461 10990 
17474 6556 9381 9684 5320 9017 691 6044 5266 
53 9897 6706 3462 170 15959 13874 16665 14150 
7311 10562 6056 2712 2825 3250 4362 11007 12070 
11388 1343 9217 11521 12411 388 1367 10153 1885 
11166 11468 9295 14974 15770 15552 10308 9401 2852 
7533 2775 5140 10040 1547 8476 3368 5522 6657 
6821 12699 15373 14663 10079 14821 3781 1000 2383 
3637 10946 6367 11396 4096 9300 7457 12508 4712 
1800 2273 5966 4984 1593 4792 11259 9133 12662 
10543 10628 17734 3500 1296 2837 10285 6266 4694 
5055 10140 586 12352 12185 7090 9720 3411 2484 
9664 10138 6450 16265 8414 16968 59 226 3940 
4744 4937 2425 5810 8657 12493 11819 2736 10642 
7494 6989 5682 5029 5279 4554 1236 8849 1319 
7515 8251 5464 7168 12625 10212 3343 3527 3423 
2026 2248 5164 6229 1129 9141 15637 10159 10745 
2800 10837 9543 4186 6811 6879 2711 7615 2000 
4056 11817 10091 10053 2531 3344 1853 3476 2740 
11877 8682 6791 2673 7984 10273 14851 8840 6145 
635 5335 5084 11091 8857 5830 4739 9526 12719 
5222 4109 5642 9769 1404 11862 9575 17522 9971 
4724 2666 3861 12358 8975 8441 9824 3301 11984 
9031 4602 9323 7347 9317 5226 725 4684 3276 
1455 2723 5129 1081 5415 3904 9208 10768 10514 
11642 2249 16751 6699 5813 8001 4122 5857 6867 
6277 8683 9029 10335 9859 11504 106 3021 2177 
4472 6651 2419 5988 1897 11117 10821 7730 9183 
3337 12648 2594 4337 3894 4709 10346 9163 2382 
9350 12136 8829 6761 1360 1927 1285 4082 3947 
2789 10429 6183 8426 10545 11472 4461 4453 1936 
8582 1484 4187 9414 10539 4085 1104 1143 1506 
496 4654 3924 4994 125 5705 3358 4052 2508 
6185 8128 12131 3381 6275 10603 11975 6153 11861 
7837 6238 2686 1879 1975 4460 4556 444 3328 
5650 4050 4345 2616 7226 3439 6780 6208 2584 
12468 11705 4257 7666 1133 646 4621 5607 10057 
591 11777 4685 7966 2974 10356 4045 4551 2721 
4356 2279 588 1416 2520 10208 5000 12040 7309 
11695 4519 11597 1898 2370 2620 5837 5007 6496 
185 10371 3807 3817 765 717 2476 4594 4170 
12413 12390 1220 14979 3402 9027 3966 1059 1647 
2402 1288 6715 2817 8313 4059 4136 3354 2347 
6005 5071 9732 8234 9416 11725 11282 9619 5749 
10902 2396 4815 3107 2785 11921 6428 3776 1155 
7044 9219 12634 3125 200 5060 4532 11690 11459 
8693 4431 2275 8699 11910 6234 9000 1641 1327 
8397 9007 3323 384 2103 5028 3318 12269 2296 
5018 5290 1383 868 12119 11254 10331 9892 10793 
10778 11871 2029 6947 12167 2349 13799 5102 12230 
12150 10794 2911 5908 2868 2806 3005 4573 7043 
7363 708 11909 9231 3174 8198 12790 7570 9313 
16210 12415 11739 9772 9044 5017 5391 7710 6299 
3302 5800 5259 3558 10243 7811 1830 4698 11889 
8525 11937 11844 7645 17231 7971 12496 11618 10355 
9976 9940 6316 6007 2268 286 198 983 1053 
8854 7106 12677 12133 12512 10956 7184 12450 6958 
7799 12741 8146 7525 5158 3028 5963 4772 8474 
3937 7955 9309 10550 7749 11296 1761 2179 8839 
11202 7388 8170 7414 8427 1743 3784 3200 9338 
7179 7129 4930 9894 7164 12212 12485 17662 9357 
14977 857 1681 512 9288 11896 1144 2003 6111 
2440 4857 5827 12140 5430 2813 6286 16548 531 
3595 7435 1600 17246 5299 14714 7382 2565 1468 
3963 4051 5962 1128 6572 4140 10654 654 436 
11977 7833 9826 3293 12932 7293 2421 5994 2552 
4343 5494 7890 1698 11636 4655 12776 703 1794 
2356 4015 6625 2466 3788 12128 7386 15890 8475 
7083 7935 2086 5195 192 5766 3195 9369 10680 
5063 1652 4324 5873 3128 2732 11303 14114 12225 
482 5304 3509 1621 7591 10384 6383 3853 7685 
7426 1771 1349 71 4375 4941 1619 4822 7957 
14675 1375 2429 10347 15156 10613 8873 2375 393 
5261 981 619 5510 16216 3953 796 9302 12120 
11585 15920 12571 2295 1634 3563 15843 398 4298 