# vtk DataFile Version 5.1
Generated by LIGGGHTS
ASCII
DATASET POLYDATA
POINTS 17850 float
-0.00367636 -0.0290522 0.00193605 -0.00244108 -0.0290893 0.00205152 -8.32502e-05 -0.0293386 0.0024169 
0.000826141 -0.0292395 0.00151106 -0.00653868 -0.0284677 0.00124697 -0.00273687 -0.0279321 0.00191943 
0.0068592 -0.0284393 0.00186624 0.00789012 -0.028115 0.00202337 -0.00884037 -0.0280483 0.000695846 
-0.00419704 -0.0279201 0.00166664 -0.000770762 -0.0284705 0.00202022 0.00164744 -0.0280805 0.00149693 
0.0059356 -0.0279097 0.00191099 0.00724612 -0.0271155 0.00157613 -0.010724 -0.0271123 0.00127442 
-0.00737335 -0.0266194 0.00133475 -0.00660787 -0.0271355 0.00203338 -0.00506261 -0.0268096 0.00174505 
-0.00278287 -0.0260623 0.00100832 0.00132892 -0.0265212 0.00136079 0.00253844 -0.0263399 0.0013002 
0.00316078 -0.0275344 0.000383154 0.00868446 -0.0274741 0.00149476 0.0107238 -0.027328 0.00186509 
-0.0131687 -0.026338 0.00130777 -0.00645415 -0.0261697 0.00150944 -0.00399563 -0.0259964 0.00143999 
-0.00153328 -0.0253746 0.00189992 0.00371189 -0.0258046 0.00158339 0.00960117 -0.0268109 0.00165645 
0.0119203 -0.0268648 0.00167924 -0.0133862 -0.0252684 0.000993432 -0.00804189 -0.0256736 0.00094645 
-0.00671399 -0.0247388 0.000835304 -0.00252203 -0.0247412 0.00220325 0.00050619 -0.0254445 0.00162741 
0.0026456 -0.0250054 0.00129105 0.00435389 -0.0252365 0.000881768 0.0120958 -0.0256045 0.00173813 
0.0156815 -0.0248399 0.00104837 -0.0144571 -0.0251883 0.00169016 -0.00889513 -0.025001 0.00128642 
-0.000450638 -0.0245822 0.00178559 0.00683336 -0.0246041 0.00109657 0.0108562 -0.0252999 0.00178427 
0.01353 -0.0250387 0.00151644 0.0144074 -0.0241284 0.0014905 -0.0172665 -0.0237142 0.00253247 
-0.0128949 -0.0241418 0.000676321 -0.0126153 -0.0230875 0.00110658 -0.0079541 -0.0241779 0.00147176 
-0.00399001 -0.0233633 0.00192272 -0.00268281 -0.0236492 0.00229504 0.000602103 -0.0242333 0.00193545 
0.00202777 -0.0236662 0.00173734 0.00432225 -0.0239134 0.00122807 0.00495934 -0.0248097 0.00168998 
0.00957229 -0.0251539 0.00141551 0.0130956 -0.0240146 0.000913177 0.0169368 -0.0239316 0.00110105 
-0.0147242 -0.0233538 0.0014729 -0.0116696 -0.0231448 0.00044537 -0.0107544 -0.0236657 0.000971729 
-0.0029799 -0.0225941 0.00236602 -0.000389093 -0.0234729 0.00205112 0.00183041 -0.022555 0.0019054 
0.00717221 -0.0234131 0.00131078 0.00892095 -0.0235592 0.000912093 0.0169412 -0.022858 0.00162789 
-0.018698 -0.0224543 0.00232885 -0.017256 -0.0227114 0.00231492 -0.0106834 -0.0225594 0.000780926 
0.000587688 -0.0229029 0.00184243 0.00603727 -0.0233241 0.00131163 0.0178598 -0.023335 0.00114943 
-0.0193536 -0.0213397 0.00205815 -0.0167641 -0.0216216 0.00250085 -0.0156853 -0.0216641 0.0021896 
-0.0119286 -0.0221222 0.000668144 -0.00415811 -0.0222214 0.00173795 -0.00198689 -0.0218036 0.00185614 
-0.000477183 -0.0216836 0.00193884 0.00376351 -0.0221576 0.00133461 0.00490273 -0.0216524 0.00182687 
0.00804824 -0.0227122 0.00154343 0.0115615 -0.0222303 0.0017511 0.0126683 -0.0223046 0.0012347 
0.0144762 -0.021333 0.0012324 0.0151098 -0.0222329 0.00191693 0.0159883 -0.0218333 0.00113781 
0.0187282 -0.0217234 0.00142502 -0.0208586 -0.0206881 0.00227753 -0.0136158 -0.0216091 0.00184192 
-0.00487232 -0.0207774 0.00131273 -0.00332773 -0.0205049 0.00194362 0.000336631 -0.0219621 0.00122652 
0.00290406 -0.0206371 0.0015461 0.00609077 -0.0220735 0.00135331 0.0194469 -0.0208059 0.00152159 
-0.0223931 -0.0187206 0.00249124 -0.0196044 -0.0202254 0.0022488 -0.0183624 -0.0205268 0.00215065 
-0.0163439 -0.0205988 0.00228043 -0.0153208 -0.020096 0.00181072 -0.0131797 -0.0208496 0.00093682 
-0.00610053 -0.0199827 0.00137337 -0.00415633 -0.0199055 0.00153278 -0.00127359 -0.0209597 0.00170574 
0.00124103 -0.0212171 0.00119616 0.00815379 -0.020463 0.00146495 0.0090715 -0.0195227 0.0012218 
0.0133091 -0.0204397 0.00105609 0.01597 -0.0199002 0.00141279 0.0173678 -0.0202873 0.0015884 
0.0205327 -0.0209625 0.00180007 -0.023062 -0.0176909 0.00182014 -0.0206481 -0.0194789 0.00287107 
-0.0198147 -0.0186938 0.00265207 -0.0179135 -0.0188902 0.00260409 -0.0170942 -0.0197274 0.00291332 
-0.0141805 -0.0203846 0.00146718 -0.0112012 -0.0191421 0.000692047 -0.00899624 -0.0192298 0.00103693 
-0.0073065 -0.0199623 0.00142659 -0.00471769 -0.0188852 0.00161304 -0.00217004 -0.0200834 0.00192514 
-0.00117268 -0.0194824 0.00223726 -0.000307796 -0.0203224 0.00134963 0.00504383 -0.0205453 0.00110983 
0.00767763 -0.0193815 0.00136623 0.0103803 -0.0191604 0.00154647 0.0156633 -0.0187332 0.00163536 
0.0185396 -0.0191965 0.0018137 0.0200457 -0.0197394 0.00149198 -0.0238333 -0.0168264 0.00149096 
-0.0209391 -0.0183803 0.00277437 -0.015955 -0.0186659 0.00224954 -0.0142368 -0.0178178 0.00187296 
-0.0125295 -0.0198777 0.000934857 -0.00628821 -0.0182857 0.00141307 -0.000827499 -0.0185557 0.00186553 
0.00176458 -0.0190824 0.000701543 0.00284918 -0.0188542 0.00145307 0.00656407 -0.0192188 0.000965188 
0.00869698 -0.0183911 0.00112238 0.0120282 -0.0191069 0.000698235 0.0131316 -0.0192745 0.00150677 
0.0210875 -0.0187124 0.00226699 0.022099 -0.018691 0.00190342 -0.0200796 -0.0175911 0.00266609 
-0.0188946 -0.0177613 0.00276057 -0.0168483 -0.0181107 0.00279052 -0.0154819 -0.0176058 0.00260619 
-0.00522975 -0.0177944 0.00140047 -0.00240117 -0.0179055 0.00181091 0.000121454 -0.0181604 0.000962736 
0.00723543 -0.0181586 0.00108598 0.0161708 -0.0178127 0.00206414 0.020063 -0.0181318 0.0018591 
-0.0244928 -0.0159661 0.0020251 -0.0230663 -0.0148907 0.00199763 -0.0214008 -0.0163358 0.00245339 
-0.0193335 -0.0169049 0.00314854 -0.018157 -0.0172559 0.0018319 -0.0166293 -0.0164864 0.00274575 
-0.0136612 -0.0167985 0.00219778 -0.00998453 -0.0170088 0.00171097 -0.00744296 -0.0176608 0.000478115 
-0.0046191 -0.0160007 0.000894614 -0.00272787 -0.0168865 0.00138659 -0.000756756 -0.0174529 0.00161582 
0.00226503 -0.0165318 0.0011228 0.00542417 -0.0172803 0.000824545 0.00995873 -0.016667 0.000851412 
0.0175331 -0.017772 0.00133909 0.0191272 -0.0173802 0.00204595 0.0210435 -0.0174824 0.00240176 
0.0230539 -0.0181511 0.00173914 -0.0240775 -0.0148007 0.0013277 -0.0189254 -0.0158641 0.00289016 
-0.0148942 -0.0165673 0.00260739 -0.011216 -0.0165964 0.00185928 -0.0102527 -0.0152668 0.00171585 
-0.00949745 -0.0160134 0.0014605 -0.00613882 -0.0155721 0.00192 0.000339876 -0.0173173 0.00178583 
0.00647311 -0.0166405 0.00113771 0.0109839 -0.0164154 0.00137563 0.0121066 -0.017044 0.00100751 
0.0189678 -0.016189 0.00180622 0.0200489 -0.0167728 0.00215271 0.0216852 -0.0164526 0.00204249 
-0.016141 -0.0153794 0.00305423 -0.0149874 -0.0147294 0.00375213 -0.0139297 -0.0157261 0.00362107 
-0.0131983 -0.0158732 0.00252171 -0.00857299 -0.0157882 0.00199467 -0.00751479 -0.0156263 0.00158392 
-0.00486697 -0.0148085 0.00194723 -0.00367086 -0.0152224 0.00167159 0.00443219 -0.0164579 0.00128716 
0.00537604 -0.0158773 0.00160632 0.00741277 -0.0156077 0.00148328 0.008654 -0.0165753 0.00073545 
0.0142259 -0.0167385 0.000998501 0.0173794 -0.016484 0.00182983 0.0198661 -0.0153738 0.00183848 
0.0207629 -0.0158817 0.00244126 0.024069 -0.0148219 0.00126197 -0.0195235 -0.0148496 0.00266366 
-0.017786 -0.0144298 0.00277626 -0.0165892 -0.0143321 0.00283646 -0.0115865 -0.0152132 0.00227132 
-0.00782242 -0.0146577 0.00189477 0.000372854 -0.014641 0.00109321 0.00140549 -0.0148041 0.00119465 
0.00848736 -0.0153032 0.00126681 0.0115298 -0.0153503 0.00149675 0.0144024 -0.0156061 0.000455933 
0.0175276 -0.0153394 0.00197419 0.0214777 -0.0147868 0.00261902 -0.0214907 -0.0135544 0.00230061 
-0.019528 -0.0136883 0.00249714 -0.0182542 -0.0134143 0.00279801 -0.0144767 -0.0136411 0.00257063 
-0.0122052 -0.0140348 0.00153873 -0.0112239 -0.0139968 0.00237759 -0.01003 -0.0139365 0.00208779 
-0.00582335 -0.0140565 0.00178491 -0.00149157 -0.0146639 0.00180357 0.00141767 -0.0136931 0.00129334 
0.00463387 -0.0150688 0.00121224 0.00519886 -0.013978 0.00131288 0.0164938 -0.0147839 0.00204207 
0.0184166 -0.0137839 0.00228497 0.0198581 -0.0132256 0.00242891 0.0220047 -0.013541 0.00198747 
-0.0178541 -0.0122286 0.00212972 -0.0155723 -0.0139111 0.00284943 -0.0133118 -0.0133588 0.00222624 
-0.00993122 -0.0119184 0.000684256 -0.00839956 -0.0134883 0.00170601 -0.00664609 -0.013422 0.00163003 
-0.00293963 -0.0125207 0.00121844 -0.000877952 -0.0132935 0.00172722 0.00401942 -0.0139545 0.000989717 
0.0103252 -0.0137771 0.00177438 0.012369 -0.0144561 0.0012998 0.0159975 -0.0135732 0.0014193 
0.0166937 -0.0136722 0.00272982 0.018873 -0.0126597 0.00255611 0.0209528 -0.0133592 0.00248625 
-0.0201459 -0.012666 0.00246244 -0.0189425 -0.0125016 0.0025545 -0.0152799 -0.0121549 0.00182072 
-0.00684068 -0.0116648 0.00192346 -0.0059072 -0.0125034 0.00202989 -0.00454637 -0.0120901 0.00124777 
-0.000676412 -0.0123434 0.00103087 0.00265089 -0.0140614 0.00109862 0.007045 -0.0141984 0.00109288 
0.0149018 -0.0130192 0.00160141 0.0175198 -0.0128597 0.00233544 0.0212043 -0.0117396 0.00242221 
0.025743 -0.0137441 0.000782237 -0.0181331 -0.0113469 0.00273771 -0.0166778 -0.0119537 0.00256352 
-0.0127907 -0.0117323 0.00230796 -0.00813413 -0.0124103 0.0019648 -0.00354144 -0.0116945 0.000786684 
0.00216726 -0.011505 0.00139234 0.00501415 -0.0128946 0.000992666 0.00633768 -0.0131752 0.00168369 
0.008123 -0.0125509 0.00106329 0.0147549 -0.0119839 0.00178182 0.0158488 -0.0127597 0.00230363 
0.0179725 -0.0118439 0.00221617 0.0192907 -0.0116072 0.00280397 0.0202684 -0.010943 0.00182443 
0.0233755 -0.0110262 0.000745134 0.0256433 -0.0121016 0.000970125 -0.0192348 -0.0111799 0.00243323 
-0.0181318 -0.00981165 0.00185981 -0.0157226 -0.010997 0.00217353 -0.0137316 -0.010694 0.00189521 
-0.0123432 -0.0106993 0.00199518 -0.0109597 -0.0113119 0.00163192 -0.00885725 -0.0101737 0.0015625 
-0.00704437 -0.0106206 0.00191046 -0.00193775 -0.0108075 0.00138848 0.000438523 -0.0111484 0.00152403 
0.00863863 -0.0116351 0.00215914 0.0120266 -0.0127481 0.0018726 0.0184577 -0.0107561 0.0027736 
0.0220955 -0.0114073 0.00161089 0.0244917 -0.0109725 0.00101357 -0.0202665 -0.0106697 0.00220745 
[...]
POINT_DATA 17850
FIELD FieldData 6
id 1 17850 int
1056 1333 13409 8544 5048 3047 11716 14487 4993 
11360 10226 11584 11686 1534 12559 16546 1782 13176 
6614 10888 13516 5499 10267 10061 17357 17629 13139 
2939 12542 8892 11297 8014 2000 3369 14914 13275 
5604 17366 16240 5079 110 15365 9987 3728 14267 
16740 17478 6021 4278 15039 15711 1224 16295 14813 
378 13710 16103 12068 17778 15216 11825 11249 4690 
10954 605 3692 9858 17317 4937 16087 12713 3544 
14477 17376 12595 11127 14637 17805 5031 15881 15543 
17828 14496 6998 4781 15207 12164 9887 7960 7148 
5826 5170 6747 13262 16556 6261 5161 5824 8689 
17318 1666 7189 10714 6900 8973 316 4780 3926 
166 2598 6858 3561 16368 16504 15060 6521 3869 
13895 9740 3048 14100 5355 11440 8206 8416 2759 
11873 17492 8561 9013 16509 16940 15919 17122 9820 
15878 15852 5052 1356 5895 11600 15990 16662 13539 
16934 12566 7265 17611 9273 625 943 13270 7629 
14158 1462 15625 7533 2007 5168 3151 1022 8794 
12332 13022 3551 10622 17137 12556 5784 6886 8876 
16370 12061 11561 7605 10988 1176 12035 17240 1140 
8808 6971 11429 595 5558 15011 2057 8413 15663 
749 3317 15484 8585 14789 10416 4600 16442 16114 
16951 10697 11973 9924 5341 17233 14683 4429 7582 
14032 5783 9187 3137 10319 13180 6386 5437 17635 
1738 6908 5272 7477 8816 14357 13039 9800 7197 
11415 13769 6589 17248 6843 1480 2049 8641 14928 
3308 3811 6144 10795 15602 14315 12329 14436 16347 
5433 4190 12919 8966 3870 10990 7765 5875 5504 
13778 3813 10456 11988 226 14635 6267 3940 9649 
17614 11962 1401 11218 11014 359 16729 8715 17131 
7553 10916 9871 7771 5463 5540 16243 174 16457 
5695 5383 10030 17148 5578 777 13566 3810 14780 
4368 12817 16086 426 14055 16409 15782 12338 15824 
13087 11529 9665 8658 4648 5851 3049 1939 734 
12023 10834 3973 2742 5186 4146 11568 3353 15250 
16342 753 7788 14564 9628 17182 9286 8846 12638 
3619 11185 4818 13171 6006 10423 6836 13863 6789 
8982 13893 12821 15465 11957 15615 14278 9655 6700 
6372 10673 6915 14457 14615 16096 4748 4185 5320 
10158 4035 17206 9801 10574 5645 17555 10752 14523 
9737 13207 4109 8064 1281 6966 7869 856 13713 
1471 8004 3226 8546 11745 9703 11428 17185 1213 
17084 10 15432 1990 3706 16255 4665 17077 13504 
13092 435 12771 17113 16496 16265 2587 15572 8887 
11336 1129 5440 9149 12497 14072 15994 3488 3431 
17331 12244 2382 7011 17603 16011 11147 17770 15192 
11390 15748 7880 5950 14397 10103 15637 6409 2853 
7872 12791 4421 245 12239 6539 17280 5754 14507 
1597 17121 13755 6065 9379 17031 3885 8503 6714 
17582 16149 11294 9626 15475 7173 2337 14794 2155 
16211 9233 5584 5137 5497 16726 416 7995 6012 
10723 6300 7036 10244 2732 5988 5352 13347 8502 
2059 9641 537 17401 3460 13 13847 6107 8215 
17734 16762 5864 5727 12386 10487 17105 9148 16481 
13441 8195 7485 14149 10864 13626 2039 8573 11856 
12667 11906 17389 7003 14203 9026 14766 5713 13510 
1097 2461 3716 6609 8023 14624 14733 11037 14518 
2443 9806 3778 17194 16389 14948 2561 10049 9634 
4715 1888 17381 11184 6786 2298 11626 9939 10754 
2504 14778 6345 13242 17386 17237 1734 17363 5388 
14633 11325 13267 11583 11487 16845 413 13911 11244 
13322 4463 10609 10725 13166 17609 15307 16581 5182 
1494 4439 11661 16992 5270 4086 11161 14963 16213 
3704 6547 7799 15147 4597 3472 16281 10543 3878 
12057 10486 10243 17223 2477 10137 1879 15410 16478 
14555 4393 15164 15636 2758 2085 3558 17340 16005 
7005 7631 12102 2521 14879 13284 17102 4986 14087 
16462 14892 4561 6093 6095 17742 17140 17093 17269 
15116 13964 2610 1841 9201 11776 5886 5430 10219 
17466 7740 11895 2220 15513 4097 9657 9669 9590 
14977 5926 8542 17568 2325 10373 16020 8905 1608 
611 16698 10611 10066 12746 14148 10537 11443 14888 
17477 10937 15647 6690 12664 15214 16983 1827 4755 
10360 17219 4819 8623 15146 6360 9268 5906 7576 
4634 10330 2927 4264 13801 2993 12783 2369 9319 
6793 17672 2158 14395 16206 12492 8894 7118 11757 
3119 4059 8288 10506 16479 14904 16936 9606 5338 
2904 8347 9050 6801 17818 16099 11970 6099 12813 
7327 11739 15284 650 9609 3044 2897 263 17572 
10585 5035 12343 15999 17068 16401 4918 15380 11608 
5153 2128 2210 1453 11551 8338 16766 14792 5802 
6433 14997 16806 11471 4928 17273 4214 17300 14062 
465 6729 17528 8050 119 2080 8169 13145 574 
12330 11785 13183 11866 7565 12929 12540 1632 6354 
10521 8350 12712 7812 5614 7760 11341 12013 10192 
14617 157 7782 13831 2644 2763 17605 17453 743 
16543 1902 6493 7750 1846 10189 8468 9955 7030 
14608 8163 14859 7878 11383 5456 3016 9772 4050 
15006 568 6918 8712 2801 13520 302 6574 485 
1067 4182 16012 8838 3580 6713 5277 5369 2304 
10836 363 3459 801 8137 14256 12081 16550 2491 
799 908 5710 14777 9097 15753 3916 7479 2586 
5755 7135 4733 3654 7550 4663 9540 17362 5878 
3665 7754 15461 6940 3670 1166 8907 16786 13996 
5190 13002 11275 3036 8056 1304 5684 5416 3585 
6037 5427 1906 3850 10868 4400 5467 4203 8639 
7006 8745 3064 12325 14857 4899 909 7329 517 
2860 77 16038 1952 8926 5720 16356 2814 6067 
1788 14723 787 4149 6760 16505 1834 6262 32 
1844 2081 10710 14700 323 2765 5930 17772 9057 
17659 2131 1643 7813 7870 13982 12092 4064 2506 
13730 3695 5189 11889 13390 2082 206 4289 3843 
5675 16205 6406 15348 12676 5986 2005 459 15749 
9236 10840 7316 7743 2074 6272 2651 10790 12481 
14868 13077 3104 13978 6756 9040 4793 6640 3457 
1007 1397 6255 4659 7708 6741 6018 6027 10428 
12832 480 4184 7987 2917 3406 16878 14153 5242 
14982 15898 9443 3058 10651 1044 6269 17154 10445 
12326 4591 7527 4752 2328 6735 8280 11593 2110 
1877 4691 10718 2572 12202 1574 11340 9720 5377 
4758 2199 2153 7668 147 10777 291 15136 9240 
9791 11068 7063 17177 7183 16597 17581 11113 4438 
12622 3696 2200 13465 9090 8902 5954 10028 14020 
16313 1316 12788 3375 1552 12328 5235 5106 16447 
8809 5053 16112 10951 10169 2954 5808 13924 1659 
14717 1413 8796 6460 15649 15469 9597 1461 17648 
2775 14331 20 2851 14529 14334 15203 11820 1395 
7239 16379 14863 5318 14849 9759 735 2473 2966 
13867 10619 12624 4168 7216 2327 7866 2445 12688 
16860 12376 12800 8521 16821 17626 9777 11316 8706 
13720 2286 3436 3786 16310 4515 4175 2549 11188 
9352 16984 126 7917 6217 14433 2235 12206 1122 
4581 16923 10815 16025 7146 5274 16081 1828 1554 
12280 5276 1069 17739 5236 2946 146 672 13792 
10877 6026 9055 10251 7256 8191 17399 18 5891 
3904 12411 14232 17490 9652 3597 16266 9767 13259 
11423 2224 9110 12234 6094 9485 10501 14596 13891 
14560 14177 7999 9103 7893 15077 16044 652 17565 
14730 13749 16057 2924 5936 6323 2836 4811 6555 
16104 5037 1308 15325 13143 11343 162 10645 14811 
8222 7470 17298 6097 7733 17352 11594 16872 15953 
17686 6421 1678 1197 14461 7181 1277 2087 9661 
10895 16484 1814 12923 11078 13667 16267 8248 9815 
14224 15246 15718 13846 1076 7429 13467 1746 6840 
11975 6603 4725 7106 5002 17379 10418 7124 5275 
16594 4548 13377 12056 13488 8488 16157 14662 12770 
11413 12037 7363 4491 5026 2406 1141 1766 9724 
10079 14193 12528 9331 5856 8461 2091 9534 15083 
11936 755 14079 3350 7555 7804 16542 16357 5239 
7904 16629 5847 971 1504 13589 9069 11364 4454 
4038 5238 9440 14954 5542 5946 6163 15590 8797 
8651 7314 12207 4625 9189 7220 2077 14419 2310 
12747 721 9880 13950 5139 2280 8226 385 16649 
13418 9921 9045 12942 4792 13326 4338 13958 13955 
7376 3463 431 1708 2383 12377 3620 16188 15766 
16022 13329 17683 17104 1617 1138 6541 10353 16311 
7112 143 2568 1947 14848 15007 10463 7958 12857 
5749 7984 6310 17211 12179 13076 926 13168 15793 
11819 10648 16377 15643 9778 14366 9309 11752 5303 
5181 13923 15160 12472 7127 7480 10965 12365 12282 
17313 10151 17222 5317 1133 7309 1711 8701 3446 
1528 3091 10355 10263 13398 13574 1563 14214 7938 
11074 9002 16802 11478 5845 5646 7491 290 5526 
11858 14236 5919 12015 9731 7087 6685 4087 11670 
14816 8717 11264 1203 11035 16259 9370 11212 3738 
8663 16304 7936 5453 7891 6511 2855 14708 7476 
1830 12777 11654 3108 6480 1226 16770 16508 4917 
11703 8091 13653 3717 5548 16129 9344 2230 15558 
16757 12709 3726 40 2600 2143 2138 2362 10412 
15818 6824 14864 8070 10371 7398 6965 5441 4670 
3828 14752 362 1472 6723 335 5223 6459 3257 
16301 11061 12097 4258 12450 2197 122 1393 6832 
7129 5970 7323 12819 8435 7525 6118 7659 14249 
17487 15915 10172 15154 1948 12270 13545 3956 13175 
11346 13219 6153 1331 9225 13937 7170 10329 1499 
13479 1135 10272 15875 17752 9133 5114 840 8492 
10341 7347 9726 14247 14513 8198 9468 5491 1377 
11026 11913 1071 11923 16818 17170 10401 4279 3079 
15255 13026 12314 2577 9873 11060 5738 17006 1545 
11338 8938 10429 10057 16919 9577 11578 12855 12729 
3082 17787 9008 3550 17561 17511 11159 274 2319 
14060 13338 2433 7890 16441 16716 5724 12708 11469 
16455 663 16247 6883 8803 10395 11482 4475 15688 
13763 4482 4739 14186 7577 11618 8431 13216 6338 
3019 13163 3900 8913 11160 6004 7800 17189 11361 
6546 13977 3636 9613 14239 17087 14092 8534 3652 
1134 8751 12509 17613 11960 13525 12086 6016 9784 
15155 11103 17807 14448 5672 12741 10983 7654 14506 
125 11691 8856 11876 3466 11430 16403 10712 7833 
11565 8993 155 5536 16614 5473 11024 7205 5977 
10143 16160 1652 13373 1362 17099 9881 13342 5252 
8669 8278 3977 8804 7526 6605 8897 5283 13185 
7361 16743 7741 9498 7531 17547 9591 7355 14727 
4906 2947 15644 14842 4170 13850 5334 3912 1622 
7072 1867 9844 13940 4134 17097 14091 3005 221 
16353 4014 13690 10657 12232 14371 9751 2353 1145 
16913 14195 4842 13609 6228 17830 8968 16810 649 
3506 16854 14353 11832 681 15121 13506 3766 5587 
16836 11850 1600 14029 6654 17585 3171 4110 16528 
398 4983 17485 2034 11012 10421 2361 15014 8981 
5989 2622 15330 17649 9915 8986 14802 13007 1422 
15454 13023 8424 8067 2469 10928 17454 17644 5994 
10274 15341 11897 4486 4718 3080 8022 806 13372 
10590 726 2389 11852 12263 7641 10476 2142 14917 
17696 13834 10427 11109 11886 15905 4908 16799 3282 
8650 8823 10986 1193 2816 543 13562 16499 17439 
12864 12956 8601 16811 14874 7930 13771 5264 4616 
4389 15476 9602 14105 17443 7237 7073 3267 9262 
13460 13404 8076 15623 16780 1275 12294 6672 551 
4872 5790 4349 2559 15120 8535 223 7806 13722 
8901 17550 10299 8802 12375 16865 9622 14599 17681 
3324 299 7897 5135 14336 8896 11909 676 17117 
9 972 3376 6668 10472 4147 6464 3351 1610 
1586 1113 15133 4452 2983 2421 3132 567 17436 
5711 14295 6937 6659 9413 1595 15814 14428 9516 
12087 14179 7391 8545 5448 10133 17257 7209 1252 
4722 1210 2067 6642 6903 16501 8328 10217 9798 
3879 16227 6569 9285 8049 10333 4797 17460 16710 
1096 3274 4837 745 5719 3217 17729 5205 11733 
7528 7996 4457 4074 1702 7687 3675 3740 8041 
2076 7529 399 3690 6567 7611 2866 15741 3784 
4741 9299 3530 6621 6717 15244 8239 9072 2589 
13803 7509 1035 4603 3638 535 802 6618 6631 
8156 9691 16136 3093 1573 6954 1716 4442 2372 
9434 3408 13012 10544 9672 17782 1590 1251 3011 
1942 15477 8439 601 4144 10880 6442 7715 15891 
10032 11789 16534 962 8491 5202 8586 15386 10692 
1690 12896 6288 733 14432 12461 9982 8028 1731 
5492 6215 4489 3755 10200 10567 7034 14399 17553 
10856 16731 5751 6804 15049 9941 6130 2720 173 
4559 12706 1985 5903 322 7014 2522 6448 15853 
13777 8518 15359 195 12004 12147 4479 11893 5082 
17212 14049 2168 7853 5379 516 511 123 12869 
16771 4717 78 16560 11542 8775 10626 9560 829 
14074 7004 2418 7915 14957 10442 9824 7299 11324 
10358 13112 7709 15342 16076 14854 6796 13324 12555 
16856 6676 884 4887 13436 11371 15065 15167 3131 
12228 10511 11069 4079 3569 8321 11720 16797 7978 
10415 16917 8551 12657 2703 7441 5423 16431 7246 
14134 17251 14865 1415 13515 7759 1470 2789 1190 
332 2489 1895 132 8055 8941 2022 17610 15661 
6692 14327 12197 14255 2048 3034 1352 15616 14797 
15578 2201 3588 10670 16223 2202 3596 5006 2618 
4606 3143 15941 17481 17541 4494 10818 9681 15460 
5505 1187 2265 10807 656 8194 4679 13024 2936 
3978 12245 14270 8583 9637 15551 719 5092 16950 
15846 1551 1457 2811 7180 5786 10534 14704 15927 
14819 405 5774 11084 1094 8844 5855 8588 12963 
16775 16979 8057 4760 13661 10498 10464 7272 15247 
11455 8962 17156 111 736 14000 6365 4405 17069 
1651 16553 13367 15966 10001 14625 9558 17402 358 
16381 7975 17414 124 16328 3876 12846 8882 9073 
9615 12378 1887 9091 481 11619 9376 2221 9868 
14987 14088 17450 13994 8721 9875 15584 14673 16056 
14749 9359 4666 3714 7796 5134 6829 12632 9135 
2648 4677 8011 12107 9851 16871 15434 12447 13493 
12856 11329 12019 14109 8664 5055 2700 12841 12073 
7989 16894 10870 10053 8178 2733 14351 17013 9216 
12545 16042 6557 1725 10998 17579 16388 14839 16396 
16655 6224 8219 5656 2691 165 6080 16268 11434 
10737 1541 12960 3042 5555 17717 7204 5278 6320 
13582 7903 14042 11375 11904 11299 5676 168 2762 
4098 16996 5725 2920 1756 17282 5965 9963 5047 
11223 772 16717 1868 8232 5470 13430 17811 621 
8842 4357 11673 3278 11672 11972 11116 6367 13472 
16849 6457 14022 3219 3397 10604 16676 11047 16438 
14942 224 16968 17338 11502 1435 6396 3429 821 
6351 379 2046 3304 14393 9756 6039 6357 11208 
4226 4629 3955 17151 8878 8783 995 932 9749 
11489 13182 8928 4936 10507 15835 17738 1870 11951 
9182 6205 13742 8511 12802 647 5945 5415 497 
2475 151 16473 13753 1240 13773 15414 5503 7606 
16446 14120 13543 3783 156 5641 8859 8855 13266 
5530 6063 1326 17175 10706 6256 3643 17057 12946 
6186 4233 15285 1953 11589 1778 10497 10334 15165 
10441 14838 6728 4077 15334 1327 5700 460 17800 
10837 8728 8567 6469 1420 4661 16013 15433 16130 
15242 7933 5018 17103 14964 6837 4274 4303 14453 
9822 9700 5964 16558 11859 717 15969 887 17577 
823 14078 1849 2708 1054 6773 6536 16293 5814 
10911 14926 7096 12222 2465 3919 12568 17476 16530 
13498 6571 7712 5042 12958 232 444 11742 2215 
1298 12165 10760 6990 5378 15198 6807 3614 15377 
9976 4821 15105 1459 533 11847 11468 8179 16121 
4519 15586 14096 4556 10966 12042 1982 987 12016 
603 3006 4102 13678 10876 4849 10256 2574 1931 
5344 11357 12631 1169 6775 8850 16828 2188 6973 
1960 13408 8795 4342 11480 17267 3743 10091 11905 
8384 6191 557 277 16449 5454 4449 17848 12040 
6979 9388 17139 13683 890 17438 12104 11143 11738 
4582 11802 5096 14407 16739 12424 4596 2340 3952 
11896 9142 15844 7168 340 13152 14986 2336 3342 
2862 15201 8146 5420 1770 7849 228 12789 11617 
14751 1833 9281 3409 328 17027 7319 9538 12862 
16763 158 2275 9139 2426 10073 3560 5752 15555 
16723 4416 6740 259 16694 6705 14655 14906 9614 
7083 8015 9348 4813 15826 11447 5279 12189 10136 
8845 3277 1244 14664 6136 5256 10525 13738 12006 
10467 10812 13298 7486 9259 7710 12152 4123 5963 
11882 16559 914 11890 5804 13889 12050 5957 12196 
9920 16148 11731 7208 7763 10662 13890 12711 13637 
15506 2381 11732 546 15350 1869 4197 9709 6865 
9346 13776 6638 16465 9446 1795 12548 8281 15504 
4577 690 11520 16374 15122 15523 2375 4585 4619 
14268 15407 2498 14699 13762 2619 877 16063 13178 
13420 1773 10679 12306 1400 8406 4956 5785 7847 
2601 16435 14983 7232 15976 17023 11439 12412 6875 
9859 17593 14380 13544 4332 15662 8354 10460 5165 
14739 15667 14681 13748 11714 17563 7745 4644 2453 
2095 10186 17388 2565 73 4307 2819 3846 16276 
7260 16277 15149 4770 8217 3685 14347 12350 15624 
17721 1720 5844 1978 11857 17827 6285 4041 8633 
11419 15042 7669 1381 11710 17727 9608 11034 9505 
9869 14330 5195 225 1387 6238 6445 1857 17689 
13405 7693 6284 14656 10746 15173 8120 16987 781 
11492 7697 2051 14279 4537 7720 10042 17339 12888 
13750 9557 8866 7814 8397 17287 1115 16630 13232 
13509 6317 13331 14369 12161 11251 11458 15581 12291 
2557 728 12603 7762 8610 13969 10627 16841 12021 
2829 9020 10384 5066 5596 15716 8530 6561 11668 
7041 1536 1715 1609 5188 4415 4138 15772 3923 
12673 13058 8680 3698 13496 6274 3078 10065 8042 
11630 15651 14470 15025 15742 14521 10112 14540 17620 
11307 10776 10758 7636 2084 15217 13290 9004 598 
16476 13921 3727 8994 12049 4106 3234 1154 12084 
13413 8955 12994 2391 11756 10215 11412 1825 2120 
12763 12701 4984 3549 4176 5244 6394 5828 5360 
3708 6514 17506 13016 1263 9028 12552 7101 16844 
10680 17034 13296 13379 2 13902 2609 6529 3725 
5732 16437 9206 4814 5613 239 1221 7043 9241 
5654 10092 6615 4029 1100 6370 240 17324 15618 
11461 15837 1550 8083 64 3928 15387 2117 12564 
7123 11023 9919 11713 2438 15746 7990 4205 3275 
13041 7685 13608 15921 7707 14151 14466 8089 15831 
16652 4827 15129 5934 7953 3207 15954 13768 11322 
8920 6510 10397 5501 3252 12782 17254 365 6467 
15045 12678 9398 3287 9936 2727 55 14533 1787 
12562 11990 6636 1219 8289 2029 5512 6540 17769 
3613 14887 8144 12865 3220 10804 3130 1568 13866 
5779 2937 2495 12730 15723 1496 9024 9321 4094 
636 10935 11748 17442 5034 5777 6752 14638 6823 
2878 15850 5885 11347 5592 6458 4771 14674 13492 
624 8873 10630 2478 9172 3176 8323 6276 844 
8815 3167 213 9127 1625 1269 3059 826 3659 
3710 12803 17642 8 14621 13638 4506 15382 3979 
1425 6748 6066 2352 10204 5488 5981 10129 5820 
1234 337 6558 5687 9264 8576 2982 5428 12024 
7064 9082 3165 1743 9601 4876 13613 7475 10145 
14750 7499 8749 1754 2194 7676 13514 4640 471 
9425 8027 827 11420 14039 13101 5020 882 2468 
10181 16284 6254 6516 8216 12209 7594 12416 2831 
7722 8299 14520 352 4276 14907 4065 3769 13127 
2932 6173 10206 13045 14452 14260 1658 8604 4719 
70 1011 738 7946 14677 15776 4156 8485 5207 
600 4701 4492 9431 6537 9337 10340 4200 12439 
14640 4662 15262 5717 11054 12616 3605 6620 3315 
954 13942 6680 638 3404 12335 5325 4268 16701 
1442 9536 409 4151 5924 500 3757 1751 12599 
9490 17730 7103 12765 6466 14658 12458 9725 14199 
7508 8615 17370 1890 9354 2837 5146 10233 12504 
1728 515 6416 12731 13273 473 8996 13459 4893 
8495 11256 14943 16468 5353 11822 1163 4649 8157 
17071 7459 16271 14403 6249 16782 17343 14281 6687 
12558 5408 8600 15610 7980 1938 14414 9718 16949 
11006 10568 10376 2374 11516 4505 11940 4474 14384 
16910 4697 5333 2712 558 4160 4853 5534 13450 
14392 15391 11462 8497 12065 4750 10984 5395 12759 
6304 4404 457 9109 9842 10380 15104 16777 13293 
14071 11133 13245 2503 8688 4161 2006 4660 376 
2241 10435 12766 4974 65 8948 2747 9339 14321 
4417 10100 1008 1642 7389 4904 14974 14639 11543 
608 7656 13734 17715 11665 11574 13305 16976 15492 
11421 5681 8616 627 7431 7438 5648 9076 5216 
13013 13739 11450 15813 6242 16051 15400 5697 3897 
14368 12264 7357 10269 11126 7751 2698 9427 1970 
3265 8166 12012 15102 11067 7619 12051 9419 6599 
7723 15047 2123 7095 8631 11064 16006 9975 12219 
12457 6667 11154 6584 15282 10499 4153 14265 16575 
17067 16145 4224 7046 13961 2665 8212 10410 8334 
12304 9638 14873 10230 11301 17012 13865 5039 803 
14643 10885 1489 2028 8695 16066 6519 10225 10857 
10838 9251 1732 11427 3074 14286 406 2657 11751 
6553 10905 12940 8541 107 14991 97 11978 14745 
11304 175 6056 14525 16354 8316 15114 17759 17448 
17159 10867 12399 10788 15175 14616 14661 15420 11130 
8793 12391 13481 16588 12799 4253 5301 2744 163 
699 16843 13146 13225 17405 9546 13416 2891 10488 
16580 14057 16801 16134 7822 15238 8940 7858 11027 
6844 1409 12665 9130 12204 11971 12587 16428 17291 
8787 6877 12844 14498 7253 2462 12046 3396 2467 
2861 1276 3416 15273 2638 5853 7885 12110 7427 
1500 6769 1478 14550 7862 2782 1127 12112 12346 
12454 1043 10773 4604 2941 2384 7210 1739 9064 
10124 3829 9925 4671 304 9099 4327 14133 15691 
3686 8060 7684 6231 15638 3658 10987 942 1294 
504 5143 5634 17486 4985 15424 12502 14209 5564 
2097 2571 17722 10246 3484 10431 5566 14852 11603 
10090 3718 14113 5599 7589 8854 7859 2253 16456 
3999 8891 6927 10389 15300 3796 12045 3201 8223 
13848 16124 12476 8199 17253 2355 4133 16877 17297 
11213 2446 7031 13529 9499 14783 15183 12902 15358 
13871 16525 12915 14918 17369 14573 9765 7534 3752 
3154 15343 16485 9034 9944 14346 873 11647 10925 
16567 1667 10592 5187 11473 16009 13463 9297 7341 
5243 13252 933 15378 7634 11011 1571 630 1082 
16699 2488 2428 14183 14107 7581 1460 17634 5932 
789 15972 13335 4219 3640 3352 10798 3525 11725 
14340 17803 16925 6085 7469 10387 11456 10500 12867 
14971 13852 6869 13005 6329 646 12978 7973 1950 
5443 12010 10265 5887 7090 2757 2274 16464 10621 
13927 1510 13291 2176 7058 16679 13523 7912 15603 
14124 8257 5222 7301 106 7133 6472 8097 2463 
17608 710 4881 12352 5740 12743 16826 5005 16765 