# vtk DataFile Version 5.1
Generated by LIGGGHTS
ASCII
DATASET POLYDATA
POINTS 17850 float
-0.00258804 -0.0249942 0.00220307 -0.00493567 -0.0208534 0.00236678 -0.0232843 -0.0168131 0.00175109 
-0.0224763 -0.0157585 0.0019136 -0.0209042 -0.0112756 0.00183185 0.0121293 -0.0118639 0.00233169 
0.0272884 -0.00977645 0.00173781 -0.0179526 -0.00926403 0.00172826 -0.0138938 -0.00550496 0.0019755 
-0.0118206 -0.0017285 0.00173975 -0.0226452 0.00159731 0.0021692 -0.0217357 0.00478174 0.00180608 
-0.00274723 0.00788869 0.00146429 0.000472452 0.00833905 0.00229842 -0.0236225 0.00796634 0.00225907 
0.00633349 0.0178192 0.00226086 -0.0135167 0.0214146 0.00222235 -0.00665371 0.0216272 0.00199397 
-0.013499 0.0224828 0.00196424 -0.00394691 0.0251706 0.00178188 0.00173926 -0.0289646 0.00154278 
0.00625218 -0.0258951 0.00184137 -0.00110635 -0.0240968 0.00232579 0.005658 -0.0248957 0.00204364 
-0.0111391 -0.0229405 0.00177959 -0.00559752 -0.0236678 0.00194407 0.00509133 -0.022727 0.00238297 
-0.0123237 -0.0212517 0.00250636 -0.00555531 -0.0225336 0.00205271 -0.004159 -0.0217359 0.00236595 
0.00187977 -0.0224794 0.00159362 0.00546913 -0.0217263 0.00201819 -0.00821591 -0.0215001 0.00221029 
0.00703438 -0.0208363 0.00205379 -0.00707333 -0.0206692 0.00236799 -0.00589567 -0.0202431 0.00220153 
0.00840599 -0.0207923 0.00212284 -0.00729197 -0.0193532 0.00199465 -0.00424933 -0.0197693 0.00188253 
-0.0105376 -0.0183907 0.00232175 -0.00815142 -0.0185747 0.00214019 -0.0053831 -0.0190955 0.00209448 
0.00990214 -0.0193691 0.00210679 -0.00587965 -0.0175388 0.00200853 -0.00240697 -0.0174822 0.00207448 
0.00173412 -0.0184748 0.00229062 0.00993123 -0.0182703 0.00272352 -0.00999101 -0.01728 0.00209638 
-0.00782075 -0.0174859 0.00214979 0.000494575 -0.0169686 0.00213302 0.011774 -0.0171241 0.00206638 
-0.0201779 -0.0172113 0.00236286 -0.00146056 -0.0168625 0.00175015 0.0105708 -0.0170993 0.00219612 
-0.0251227 -0.014928 0.00242818 -0.0204392 -0.0161067 0.00232105 0.0019016 -0.0159843 0.00219161 
0.00344365 -0.0155042 0.00223485 0.00581582 -0.0146388 0.00215378 0.0133839 -0.0146688 0.00180183 
0.0121592 -0.0146542 0.00215256 0.00889738 -0.0122661 0.00227513 0.012828 -0.0127039 0.00211775 
0.014434 -0.0133604 0.00194591 0.0134864 -0.0118157 0.00212835 0.00573449 -0.0108224 0.00209366 
0.0129086 -0.00962852 0.0018856 0.00547649 -0.00970106 0.00219404 -0.0160133 -0.00917595 0.00194461 
-0.0196187 -0.00814995 0.00182891 0.00824189 -0.00798984 0.00201985 0.0124124 -0.00690207 0.00161872 
0.020016 -0.00801434 0.00190768 0.0270375 -0.00726251 0.00227822 -0.0166471 -0.00797972 0.00237086 
-0.0121435 -0.00800302 0.00180058 0.00936805 -0.00760361 0.00198999 0.0188743 -0.00574466 0.00200606 
0.0254481 -0.00419699 0.00191373 -0.0162674 -0.00635415 0.00230018 -0.0133898 -0.00796223 0.00214949 
0.0249125 -0.00599656 0.00182192 -0.0149194 -0.00634147 0.00202657 0.00770103 -0.00532828 0.00196146 
-0.015754 -0.00525312 0.00246068 -0.0109516 -0.00305767 0.0020894 0.00662071 -0.00486181 0.00193041 
0.0202549 -0.00281916 0.00228797 -0.0164123 -0.00433622 0.00250553 -0.0127457 -0.00370284 0.00173085 
0.0146446 -0.00224794 0.00223011 -0.0181797 -0.00198789 0.00204715 0.00550285 0.000633374 0.0018202 
0.029171 0.00100406 0.00309478 -0.0205662 0.00306107 0.00198909 0.00540393 0.0056172 0.0019273 
-0.0217003 0.00350979 0.00169849 0.000634963 0.00446292 0.00174323 -0.0230264 0.00602035 0.00193124 
0.00219555 0.00745177 0.0027332 0.00252421 0.00917588 0.00241502 0.00619623 0.00934929 0.00386356 
-0.0273159 0.00656345 0.0022111 -0.0260862 0.0069691 0.00220676 0.00190538 0.0106117 0.00173016 
-0.0246385 0.00985199 0.00244779 -0.0235596 0.00976986 0.00209007 -0.00298913 0.00963524 0.00228586 
-0.00495128 0.00938552 0.00199116 -0.0063458 0.0100323 0.00209965 0.00288367 0.0113651 0.00278251 
-0.00684598 0.0121499 0.00179104 -0.00457283 0.0118302 0.00208754 -0.00311961 0.0126571 0.00205873 
0.000572181 0.0124827 0.00169311 0.0119797 0.0134262 0.00149453 0.0221647 0.0137217 0.00191479 
-0.00599109 0.0153053 0.00224182 0.0187139 0.0130031 0.00168983 -0.00800481 0.0148861 0.00203203 
-0.00363253 0.0155062 0.002737 0.00383705 0.0166125 0.00224314 0.0132493 0.0162974 0.00197517 
-0.00560141 0.018369 0.00238272 0.00695534 0.0169069 0.00191694 -0.0102341 0.018877 0.00203262 
-0.00238832 0.0190728 0.00186566 0.000473876 0.017891 0.00193728 0.00521462 0.0181511 0.00156781 
0.0116026 0.0177343 0.00255815 -0.00802391 0.0195528 0.00227887 -0.00052013 0.020872 0.00197416 
-0.0101065 0.0211621 0.00191003 -0.0073592 0.0205154 0.00228938 -0.00772715 0.02193 0.00224465 
-0.00595238 0.0208963 0.00246174 -0.00411169 0.0227837 0.00215973 -0.00883296 0.0228592 0.00220908 
-0.0108183 0.0240754 0.00219713 -0.00710759 0.0242034 0.00234083 -0.00402177 0.0239433 0.00202894 
-0.0138714 0.0239373 0.00247691 -0.00949349 0.0251842 0.00216773 -0.00836615 0.0239646 0.00219741 
-0.00795945 0.025424 0.00190553 -0.0115217 0.0259132 0.00209792 -0.00860183 0.0262564 0.00230667 
-0.00601848 0.0284368 0.00193927 -0.00122506 -0.0293514 0.00165222 0.0032171 -0.0292307 0.00215921 
0.00592028 -0.0288226 0.00210649 0.0064033 -0.0280221 0.00158216 0.000667493 -0.0272638 0.00212215 
0.00337134 -0.0276401 0.00194757 -0.00122799 -0.0276613 0.00203574 0.00474659 -0.0275808 0.00190656 
0.000810699 -0.0260343 0.00196897 0.00402524 -0.0265568 0.00201243 -0.00330667 -0.0259179 0.00173637 
-0.00218575 -0.0261412 0.00170606 -0.00012438 -0.0252264 0.00172597 0.00277725 -0.0246232 0.00194972 
0.00496832 -0.0262611 0.00170133 -0.005306 -0.0250065 0.00190677 -0.00414595 -0.0249837 0.001867 
9.63162e-05 -0.0240191 0.00215288 -0.015133 -0.0240157 0.00222832 -0.0111679 -0.0240621 0.00190346 
-0.00456848 -0.0239753 0.00232259 0.00748437 -0.0233077 0.00189553 -0.00663579 -0.0232374 0.00217003 
-0.00452817 -0.0227379 0.00193312 -0.00106941 -0.0226753 0.00205517 0.00929445 -0.022049 0.00207883 
-0.008647 -0.0225699 0.00198752 -0.00736329 -0.0221841 0.00188838 -0.00219929 -0.0221417 0.00209861 
0.00990856 -0.0211713 0.00270931 -0.0111701 -0.021094 0.00227978 0.00222795 -0.0198585 0.00186177 
0.00596025 -0.0206722 0.00225525 0.0105863 -0.0202939 0.00230651 -0.0111104 -0.019495 0.0021844 
-0.00906571 -0.0201585 0.00242852 -0.00184326 -0.0198006 0.00230085 0.00345554 -0.0197709 0.00198507 
0.0082319 -0.0196501 0.00189188 -0.00942766 -0.0186902 0.00210537 0.000686395 -0.01849 0.00199346 
0.00428356 -0.0190181 0.00222962 0.0052895 -0.0187692 0.00208367 0.00911338 -0.0186679 0.00211151 
0.0109459 -0.0188809 0.00208301 0.0120344 -0.0183284 0.00214943 0.0136292 -0.0182154 0.00193335 
-0.000412769 -0.0187175 0.00195566 0.00518475 -0.0176078 0.00190114 0.00623266 -0.018142 0.0020208 
0.00824036 -0.0176686 0.00205232 -0.0230895 -0.0182002 0.00162989 -0.0213929 -0.0180349 0.00193895 
-0.00901923 -0.0165557 0.00243716 -0.00734873 -0.0164679 0.0020653 -0.000623612 -0.0176164 0.00200396 
0.00175424 -0.0171442 0.00203185 0.0038721 -0.0176391 0.00203659 0.00620328 -0.016971 0.00209495 
0.00724768 -0.0174069 0.00244989 -0.02459 -0.0160269 0.00208612 -0.0191334 -0.0166169 0.00186385 
-0.00845559 -0.014893 0.00168657 0.00401715 -0.016462 0.00213508 0.00769683 -0.0164371 0.00215212 
0.00946607 -0.0174662 0.00216969 -0.00723124 -0.0151753 0.00210877 0.000783703 -0.0158588 0.00188356 
0.00847427 -0.0154432 0.00249002 0.0133101 -0.0160754 0.00197418 -0.0254841 -0.0135831 0.00191806 
-0.00277039 -0.0151994 0.00205856 0.0013302 -0.0148865 0.00206405 0.0078938 -0.0145454 0.00237109 
0.00944333 -0.0150648 0.00219509 0.0112736 -0.0152306 0.00238562 0.0141848 -0.0154536 0.00182703 
-0.0243215 -0.0133 0.00217444 -0.00482691 -0.0136339 0.00206675 -0.00208378 -0.0143289 0.00192756 
-0.000820842 -0.0136307 0.00196767 0.0036268 -0.014113 0.00208425 0.0089564 -0.014061 0.0022657 
0.0101158 -0.0139687 0.00198392 0.0127425 -0.0136788 0.00266345 0.0157503 -0.0135526 0.00182856 
-0.0198936 -0.0125183 0.0019284 -0.0174017 -0.0132843 0.0020491 -2.8171e-05 -0.0125896 0.00177889 
0.00256069 -0.0132441 0.0023137 0.00498175 -0.0129731 0.00210104 0.00676693 -0.01266 0.00230653 
0.0079903 -0.0130717 0.00239893 -0.010608 -0.012574 0.00224384 0.0056969 -0.0121445 0.00230494 
-0.0187876 -0.0118753 0.0022687 -0.0173943 -0.0119896 0.0018189 0.00472833 -0.0114816 0.00214131 
0.00769474 -0.0115308 0.00252427 0.0140883 -0.011118 0.0027003 0.0153442 -0.0118589 0.0018089 
0.00685503 -0.0109445 0.00203618 0.0105167 -0.0119896 0.00238155 0.0149268 -0.0108376 0.00200941 
-0.0169052 -0.00982154 0.00235631 -0.0115327 -0.0106326 0.00224564 0.00396863 -0.0106358 0.0021925 
0.0090273 -0.00962284 0.00210445 0.0140452 -0.0100373 0.00213955 0.0166927 -0.0104938 0.00211692 
0.0260564 -0.0106375 0.00205289 0.0271284 -0.0110499 0.00193841 -0.0222041 -0.00826909 0.00217737 
-0.019055 -0.00913208 0.002053 0.00126944 -0.00927211 0.00182688 0.0112344 -0.00967426 0.00196503 
0.0160119 -0.00953576 0.00228758 0.0182528 -0.00878658 0.00210545 0.0251029 -0.00857519 0.00175992 
-0.0129591 -0.00955476 0.00217383 0.00351312 -0.00914059 0.00192637 0.00469902 -0.00886727 0.00204679 
0.0125922 -0.00852098 0.00172157 0.014462 -0.00847004 0.00224645 0.0154926 -0.00815393 0.00199065 
0.0276157 -0.00845919 0.00235417 0.00259359 -0.00816364 0.00157176 0.017264 -0.00807147 0.00171378 
0.0247458 -0.00750729 0.00209442 -0.0177014 -0.00828762 0.00264803 -0.0149375 -0.00798919 0.0021757 
0.00633156 -0.00649147 0.00170187 0.0169098 -0.00692813 0.00194189 0.0270314 -0.00608146 0.00181966 
-0.017334 -0.00617298 0.0022899 -0.0143249 -0.00704138 0.00258353 0.00825251 -0.00647654 0.00241774 
0.0109407 -0.00751483 0.00253068 0.0136795 -0.00707932 0.0016496 0.0182839 -0.00662594 0.00240586 
0.0225641 -0.0067575 0.00161189 -0.0129768 -0.00650423 0.00292207 0.00574809 -0.00552283 0.0018306 
0.0179985 -0.00516624 0.00242795 0.0231243 -0.00568294 0.00199888 -0.0145488 -0.00458953 0.0021372 
-0.0125315 -0.00572112 0.00182882 0.00872987 -0.00486263 0.00193134 0.0218902 -0.00553197 0.00166475 
[...]
POINT_DATA 17850
FIELD FieldData 6
id 1 17850 int
5019 2505 12444 8969 16864 5903 7804 6277 10824 
10345 4829 8474 6193 5326 3166 10704 10382 5680 
6087 5982 5045 5011 202 3311 11745 3048 4593 
4788 5708 158 3442 8075 869 6815 2089 4591 
3590 4273 3161 7465 2118 6205 5954 4661 4806 
5036 849 2809 6070 1141 3428 1721 2656 126 
5756 11907 4406 14113 6366 11677 6437 9616 8772 
5665 10349 8413 6241 5409 8581 2912 298 6210 
2925 691 2224 8542 2215 5859 6882 4493 5221 
3753 4083 3487 9031 2143 6639 2955 4257 10652 
12509 11467 6266 4985 2433 135 12478 9254 4036 
4339 11889 9456 2141 5013 5713 3823 6722 12140 
750 998 4922 6427 1124 5600 3303 4091 5636 
4114 9728 960 6892 6991 12350 6905 9080 12163 
5627 2832 17580 1039 532 3199 5637 4243 4774 
3989 4844 3098 5488 2345 3532 4376 2352 3331 
299 5207 6525 3740 5868 4192 5675 6215 2773 
3052 5161 6270 1923 957 4474 3767 324 6451 
6553 1554 3523 9003 13508 8190 2867 11250 4021 
12495 1119 9952 4690 1026 2058 11144 7197 1546 
7198 2575 1408 7858 4816 11424 3288 8773 5181 
5197 974 11652 163 9282 7991 4253 5379 8892 
10903 16007 8649 1995 1489 11434 1213 6612 2503 
5002 11129 11959 5929 5086 10860 11435 6602 10763 
12042 14898 15344 17021 13617 15758 9341 3308 6255 
9922 2958 9228 17802 15500 955 10398 15610 3097 
9151 5880 15630 14368 11329 3194 13108 2948 464 
7319 9258 12836 4429 12486 460 10396 9104 10488 
9489 10700 11462 11374 11572 9681 3497 4833 4102 
10599 904 10087 10493 2316 3592 533 10102 2650 
8248 10061 10586 907 1000 8593 1158 6523 6786 
12297 9713 11186 5857 11853 1810 8688 8011 11229 
901 1118 2248 1002 6052 8023 10399 5597 604 
6177 426 9197 3910 5105 6700 586 9439 12566 
1402 4765 11958 4412 2738 3727 176 833 8942 
2928 11705 8290 1393 1814 6240 3447 3683 3240 
301 12064 7196 1762 12390 884 767 1847 6866 
2486 5303 2922 5132 6169 3269 2806 6725 9667 
6013 5716 3318 2299 4500 815 952 10974 308 
3170 11426 4698 10331 5346 8095 5559 4825 6717 
10311 4628 1967 4545 602 1861 3554 11896 1874 
6122 12723 9996 2586 3383 512 12451 4012 5494 
7946 6605 3983 5195 3899 5827 9196 3965 67 
747 6381 3282 5724 589 3516 11731 3418 4290 
2507 2146 1996 6721 4803 3184 6603 3095 7426 
4447 1961 4329 4416 8545 2135 7621 827 11243 
5848 6665 2414 5905 6214 5900 3709 1625 1802 
3053 7526 7329 10615 4158 3189 12183 11098 1031 
7053 4016 6766 1894 5596 6237 3981 8922 5694 
2639 3730 2755 4826 5577 313 3454 6254 3165 
6596 5616 1564 1518 4058 4926 10968 3769 1585 
206 7996 9536 6520 5228 5108 4627 1243 9672 
3063 769 6659 4797 5688 2583 6231 2883 473 
6900 1933 852 4168 127 4037 6448 573 1732 
6084 9747 4845 1905 7619 2545 10533 3024 559 
3306 5224 3233 9173 7822 7751 9975 8988 5274 
4965 8301 6945 8750 8370 1951 9858 4470 1316 
5364 11328 7243 9886 8882 5455 4878 7114 12410 
3099 9872 14832 3258 1092 16058 1828 8676 12555 
4974 3714 558 7965 1478 15088 7873 7877 8439 
1889 10536 2698 9615 11864 2225 11218 10453 14639 
12159 12731 1356 2351 11544 6470 10464 12794 10953 
69 9470 11174 11751 5082 11669 4234 5101 10365 
14737 5751 6914 10695 3732 10815 11228 2691 647 
6242 10380 8925 15853 4011 11178 4976 7460 6075 
2915 12739 1030 6907 14881 7320 2550 8291 10281 
11769 12771 5138 5530 10549 306 12828 5490 5151 
3137 6104 9567 6860 12611 5246 3959 3215 5767 
11113 3881 15505 10151 12838 3752 5975 12681 4068 
6269 9927 12702 3151 9901 7045 9120 86 12204 
5941 8518 7928 9957 3662 5891 6497 15423 4798 
8231 9656 5505 7272 1968 1520 8996 12467 15674 
9721 8403 2028 9634 11948 4877 300 5368 1808 
15192 13294 4557 9040 11556 5997 38 11957 17640 
13043 3985 3438 14313 11041 5913 8536 7646 3149 
6573 7724 8490 1435 12789 17735 6101 7153 1833 
11904 867 14490 873 6757 4417 5853 4563 2178 
9954 11675 3407 2281 4283 4227 10479 10354 3813 
7134 8989 7880 5487 10261 12214 1450 193 6664 
12205 8088 10013 9142 675 6213 2265 7980 8197 
12661 6915 1811 5590 11588 1510 8641 7987 11912 
11915 5157 5291 9684 5320 2839 11242 10487 5134 
11561 17474 1074 7688 2884 8783 2269 2944 3264 
11521 8828 2808 522 11468 552 8595 3250 984 
3106 12185 4702 320 3237 8624 6419 9665 11207 
4744 6810 10213 15214 6002 6710 6584 3262 339 
11273 4694 2648 10279 9855 695 4462 11603 12519 
2214 4748 288 10969 9730 3180 3333 12006 5907 
3828 9414 169 3458 6158 2383 2156 10946 12352 
8272 3018 3353 10612 6540 6229 12104 5343 2858 
4279 2444 11338 4835 4178 6186 2292 2026 5081 
4565 11048 6329 5795 4716 6557 3283 3655 6976 
10519 2996 8307 582 3108 2960 4235 6660 1204 
6587 6851 5150 3033 3188 1025 11859 5537 4729 
6232 2329 8693 8557 1303 4407 3531 3157 12269 
9809 1980 4912 5149 3260 5760 5148 3946 1220 
6300 752 2237 2415 5042 2435 7232 4624 9626 
2820 5028 3266 5481 1313 5317 2266 9892 4875 
6752 11979 346 3529 4573 10517 6472 5893 5863 
1754 3927 1102 4527 6274 5963 7710 3134 7290 
12677 1850 6691 9453 5593 5879 5945 6020 3918 
5435 3089 471 5660 14 2432 5431 10634 10608 
5421 9288 1144 2062 1372 3650 5137 8233 5882 
1219 6151 82 1662 3760 4343 192 3220 562 
1476 10738 1 136 5388 5472 2001 368 201 
4140 2236 855 11265 3509 6067 1170 3618 8486 
5043 6832 6841 2014 4832 10436 935 4598 6140 
12705 6063 389 11182 11354 12639 4237 1289 8991 
3334 6088 3553 1684 741 2482 9521 3961 4578 
4746 3019 6003 5311 9175 5156 3241 1658 5678 
3443 5629 8970 4471 720 239 5763 4055 11054 
12671 9010 10090 13173 12288 11128 2337 3263 11023 
1900 8216 10524 4255 5547 2587 2332 9047 2468 
2193 10312 1160 6974 5297 3642 2357 3347 11630 
4244 1437 7968 1983 14085 10994 5502 7550 4072 
1245 2291 3701 1729 7339 5496 7395 9593 12425 
9181 729 9697 4333 3538 15623 7611 4749 6294 
3654 4658 5735 9833 8843 12024 8618 3245 11980 
2228 493 12578 7209 572 326 10328 1876 4722 
137 4891 4245 9298 1615 88 5482 11961 6537 
8946 1282 2932 6491 3848 233 6634 6414 1661 
11441 7425 10675 5912 5968 4374 4719 10851 3971 
542 6738 4808 356 5755 4498 1643 5608 1758 
1252 10372 916 4166 2866 5022 4911 6043 10804 
6887 6468 776 4604 21 4812 3588 4793 5784 
1076 5712 5445 5771 1014 4353 6478 4982 4489 
4231 6662 637 3886 704 3216 10202 3914 2313 
2388 1922 4458 102 9492 3657 5210 927 1963 
10269 1140 3183 1041 1051 816 9180 12026 1778 
1200 1746 96 5566 6273 1344 530 5809 1441 
4637 12153 7917 6839 3628 5265 9187 3140 12216 
2022 275 8908 10270 9931 4057 8793 7389 11262 
2317 14817 7257 16448 13856 6365 4190 5776 4430 
3203 6466 9655 11812 12110 11306 9638 17360 12547 
5240 7314 6107 8954 1147 15492 7357 10302 9195 
11851 290 10791 3840 5380 14689 8423 8157 8096 
12320 3819 3460 8779 5322 6522 9690 5051 2397 
17377 7843 17045 7348 11027 8921 4676 4377 17088 
2168 14913 12347 1999 8588 10649 11169 1494 5301 
670 9174 17445 14704 12029 12483 14872 11085 17376 
14218 8644 13222 5120 8222 11069 1796 7629 6317 
3177 4477 8331 9476 2276 15549 13206 9685 7449 
8860 7908 7879 7058 116 10828 6201 12632 14432 
8378 9542 13812 11362 6771 6011 11736 10507 12332 
1574 6130 8962 16142 16856 8142 7737 12259 9419 
11421 14875 7095 9921 9482 12299 6129 1346 4154 
12825 14615 6555 13865 15570 5370 437 5434 15752 
14760 11563 11951 16224 4683 9353 5856 1022 12654 
14703 7451 11477 8904 10790 11662 912 3257 13744 
10906 2532 4252 6805 8957 5141 12561 13868 12629 
15474 17226 9640 17701 13751 15128 4560 6737 1454 
1704 6521 7717 9032 2063 6904 9761 13829 9384 
9553 14472 9583 7148 13844 11606 10043 12315 7903 
11444 1272 13871 10134 8445 4226 15193 13641 11427 
6599 12670 350 11456 17414 9777 15731 10531 6931 
8404 45 5801 12264 9887 12588 12491 939 8019 
11454 7136 7727 865 6770 625 12424 3186 10638 
11905 2091 3692 9137 7670 8000 10271 8771 10419 
5697 2354 12752 11647 11566 3032 1075 10950 5306 
10257 6585 10958 6416 12070 10990 9759 6556 7869 
11945 8221 142 4292 10736 2459 6109 6256 3955 
2950 7684 11806 8179 10095 8664 2703 11033 10927 
7112 7585 9017 3811 3780 2846 1181 597 5390 
2707 2734 14614 10962 2712 6351 1197 8855 12411 
5783 11432 8613 2439 9370 4198 11410 5695 2825 
3049 5497 3485 3846 1391 3392 3781 10285 751 
7533 2657 11396 11593 10040 3572 3820 9724 9295 
3796 10973 6695 3637 1763 1099 6547 6015 4232 
1290 7975 6559 5296 6014 9154 1195 3527 1805 
6817 12493 5598 17608 10745 2800 4282 6473 3486 
6542 7190 667 2364 6321 4937 2425 2736 8520 
6804 3687 140 6285 1997 7491 7701 8709 3783 
789 7849 9141 7201 328 4201 6188 260 484 
3623 2160 2346 13020 968 10036 1654 12364 5612 
9350 2441 5794 3146 3423 5275 489 11642 9446 
17239 7995 2212 3990 4098 4595 118 4653 9009 
2442 6275 12468 3094 6740 340 3873 133 3344 
161 4161 9719 1912 4041 8099 1953 11378 1455 
717 11923 9140 7036 9059 11932 6153 1773 3437 
5957 2220 6753 3179 13624 11654 2830 1472 6471 
1685 6096 2099 7171 5949 5000 3147 2784 4348 
5350 1879 4410 5176 820 444 3205 5147 7182 
1539 7790 5610 1898 2056 4133 2803 4169 3688 
2464 9732 3594 14979 7309 2513 2574 6767 103 
4856 61 2103 11459 8234 11211 4431 8087 4525 
6661 392 11436 4206 4139 10751 6865 3330 7310 
11184 14633 3778 12040 1136 4717 1641 4239 3393 
12470 2923 5017 2868 3313 4254 5800 2296 10289 
5940 945 4580 6230 1182 5476 5793 9641 8528 
1235 4238 2293 5373 1830 7794 11752 11565 2539 
10127 6299 11655 1743 3773 6054 3319 1152 8854 
7106 4866 3028 2885 3421 520 11430 5344 2320 
2227 4543 3640 5290 8525 10764 5998 3277 12672 
4378 9997 11403 2761 6243 5259 1863 9309 10550 
8740 5926 685 8031 3422 3874 1068 3707 5693 
2905 5436 798 3307 6225 5285 5030 6287 1468 
3957 1592 3805 3556 4475 2409 557 3372 4888 
12567 2211 1901 5270 4567 8473 10758 9428 5003 
1548 1384 7277 2552 4216 790 1487 5766 4655 
8021 10654 2840 1529 8369 11190 115 8229 844 
5273 16 6572 1085 6016 11614 2972 12700 5304 
1011 981 5049 9266 8111 1432 2748 7986 6570 
4771 138 4503 12087 682 7834 2843 9533 1634 
619 6831 1793 4334 9592 1349 6862 1537 11941 
1382 7221 10191 6340 6369 4480 3371 1771 35 
6678 4541 10023 644 5122 6370 5510 2640 5972 
6743 1668 2913 6115 3325 4454 6684 6494 1522 
9403 5402 3638 10687 15843 6454 398 3345 12059 
12584 6744 6029 5093 9881 6534 8067 6673 6276 
3979 3321 8733 2986 2770 397 6993 7207 10703 
2025 629 4678 956 5110 639 5217 8608 7507 
6668 3864 39 22 3639 1959 7542 9205 8984 
1745 10426 12465 152 16764 12330 10242 7760 9150 
5025 6718 6464 10797 15366 15621 7012 7335 5088 
4081 10182 9630 11381 16492 10391 5121 3044 802 
6009 4217 1108 8968 10039 3126 859 1440 5399 
4946 2842 11781 6946 11483 2816 3045 12782 9061 
10494 8297 8702 4647 167 8590 8355 4830 5742 
1976 5790 4818 11056 10306 12459 6262 1569 11471 
6322 6047 11829 7844 7372 6426 1374 9862 14906 
10624 4326 2072 6765 159 15775 1363 352 2895 
91 1984 3580 6133 2525 4555 5155 9262 5389 
7436 6509 1291 5780 2877 7445 2369 593 1618 
3207 10451 1084 7483 68 3181 8499 3408 2768 
2239 3481 1716 2661 3605 9487 2557 12081 11887 
6089 3130 2677 6680 3533 1442 1812 9991 4837 
12785 1255 10881 3176 11355 6108 5711 6394 6618 
1586 3039 2081 9622 10565 7499 3666 66 716 
4663 5718 1892 3093 2579 6567 5098 3473 70 
2209 3996 3427 7249 3798 4740 616 1696 3116 
1952 1302 5087 1029 4289 9919 1568 997 848 
2311 6303 283 5938 1788 4899 2970 9389 754 
2512 10757 2671 5515 4918 4669 6495 2200 6800 
5260 5758 2161 5622 145 3296 5079 4758 6160 
7023 2931 9773 2286 11257 897 12113 1601 10632 
4075 5374 3597 1093 1819 5314 2957 1021 4117 
1101 8484 2797 452 15834 7828 7648 5796 3696 
1462 2418 376 4769 3994 7653 3248 668 13033 
15708 2739 8837 9611 4735 12755 6168 3609 4184 
4215 11628 8463 4659 8090 10318 3444 14069 9620 
6747 7254 10901 8770 6250 8267 10009 10245 6431 
1368 11808 15846 4977 5582 12595 8336 7459 12127 
6361 11485 7371 2112 601 97 7810 4635 9253 
6571 9041 4775 5423 6727 2384 8051 5832 5539 
5345 12273 13620 12515 9841 252 6363 11006 12736 
17411 12551 8292 12612 9117 8824 11943 11562 11543 
11058 12219 7402 9766 11765 10001 7438 13368 8798 
11324 17317 9811 8568 16533 17584 5100 1317 12224 
13357 11167 5656 812 5833 1845 2423 1860 15665 
14071 8973 12250 13593 13711 14722 7431 2835 5876 
8334 7132 13267 8246 16765 10656 6261 5422 4764 
4351 3102 5769 9233 10418 8790 7723 11391 12863 
12630 16591 17666 13103 14900 7606 1194 8344 12403 
10177 605 12990 14902 17803 15095 5327 17625 13739 
11327 13674 17318 10553 8443 7912 3441 3003 5747 
9502 7823 1680 17343 12815 14884 2163 2098 15913 
11527 12190 6396 481 175 5518 2174 7338 15517 
14035 14849 5741 11123 7156 15508 758 15490 9913 
11366 8614 11577 8797 11502 6012 6380 5649 3502 
9271 4358 1913 2455 10582 15056 2124 12365 4823 
14141 15300 16056 8801 10305 15860 16749 1742 6291 
3364 17233 15903 2700 5377 11131 10894 10750 1218 
6028 2489 16813 17053 13054 15345 7485 14504 7872 
4979 10014 8561 10169 7271 1045 15298 14483 9146 
1131 2019 6326 3739 15199 11666 10766 10559 5646 
3591 1707 7301 17481 17817 11222 14560 15563 1168 
2670 14822 12286 8131 9661 11476 5446 10610 4338 
991 5542 4760 12014 16370 13559 79 9380 5703 
8980 7639 11503 3142 5985 4465 10861 10377 5568 
6669 3101 6984 13245 12182 16934 9105 14548 15494 
10800 3336 6898 12727 164 4631 7255 12289 15402 
11064 15296 14414 9469 3646 6065 13269 1254 6219 
2709 5623 8611 11047 5604 887 7586 10230 12777 
12035 9836 17244 14243 10381 16045 6391 4883 9467 
7958 8788 7341 8672 12193 15134 9963 2702 1985 
6102 4781 1343 14125 9381 5589 5748 759 5193 
5935 14053 7513 6135 9099 11388 12010 11744 16826 
16768 3279 438 11278 15509 4228 2861 9184 6056 
351 2110 8583 11814 15856 9632 7140 10813 1547 
4405 5527 3472 1049 5219 6136 3379 10370 3305 
2543 5396 9217 9819 388 11215 4434 1531 4224 
6189 12017 9388 8032 12001 7097 1708 6858 439 
143 6772 4247 7457 5875 6463 3238 2460 1203 
7422 8982 7170 1557 9153 2837 9122 4370 2775 
8501 9300 8348 195 4955 2953 8398 10162 4707 
1887 6330 630 6401 347 6367 8657 1783 7361 
11221 9499 10387 3567 11506 5752 3226 8414 17471 
7911 836 280 5810 11061 10603 6867 8073 2011 
259 5574 4917 1718 4817 5047 2046 2708 10028 
9762 6336 10159 1340 6888 254 5483 1722 10104 
8030 9317 10723 245 10353 12377 9651 1971 5167 
9808 11984 3178 7347 2619 11035 8829 2899 6488 
1063 4302 9346 12507 4296 3378 3977 14656 2600 
8683 3009 11418 11504 4365 1549 3903 6320 5129 
5725 1801 1644 7349 6531 10662 6185 6979 7788 
10864 5754 7157 10335 811 106 433 3276 5222 
2791 6651 10277 2344 1072 4187 11287 14544 11975 
3677 8960 911 10918 1104 4504 2723 2802 1527 
11230 2111 11861 12244 10250 8818 5015 3021 1285 
1617 6072 1199 4939 5201 1418 5516 194 1201 
7892 12993 10567 7666 7837 4040 2177 6462 5424 
12744 7128 16704 16035 11160 1055 1133 2541 4087 
5721 4304 3403 6890 16959 4342 15431 5847 435 
7448 11597 3871 4491 818 156 11145 4551 9289 
11690 11293 12308 8161 17677 7049 2501 4502 3316 
707 1015 6626 1234 394 712 5701 10875 7424 
9784 9837 2540 4572 3253 1647 10902 3779 3302 
5909 5651 883 9416 12119 11282 1327 4800 6750 
3384 11346 11615 3005 3355 7579 868 4225 9000 
928 2609 5391 6007 5958 8489 241 10774 4195 
10209 16587 11254 3974 12525 1050 5572 12222 4548 
1602 286 4772 1759 2492 4051 575 2470 10114 
9710 10205 5869 6156 7105 11629 198 2818 8532 
4071 342 1311 10218 5113 9780 6041 5715 3963 
9369 9596 5865 983 10844 9873 10243 1053 11486 
6501 5336 4124 8841 7 1588 3490 12422 6332 
3200 10462 7955 10066 9594 3342 12512 11036 14391 
4619 9940 2045 3190 1979 2003 1621 12374 9338 
7029 3078 4010 792 9683 180 6562 3195 7591 
6683 2440 8605 2092 6260 9758 1009 4248 5962 
3856 5898 4857 4259 6360 3839 8627 7334 6429 
2977 4789 3464 2893 56 5807 314 4375 5064 
2429 16733 872 5261 5208 348 16034 11203 1128 
3644 5063 796 1652 1931 10029 8284 271 603 
393 3218 10544 523 6514 3853 11416 3491 9302 
2002 2079 2872 6411 1260 661 10110 6383 16216 
7685 6376 3953 1671 5295 3247 6405 2032 16054 
8328 3731 4951 3212 494 2322 10820 8998 7575 
15456 1715 4298 3679 1336 209 13151 5289 10907 
8566 10284 5461 141 9866 10449 4009 5606 11399 
4638 5871 10058 1359 8620 3171 1425 2158 1521 
13052 13292 8630 4975 2041 212 11134 7356 12614 
8514 13940 11493 9804 4611 1516 12792 7673 730 
11919 3625 6622 11998 15379 7286 5669 1827 8169 
14309 4794 5984 3136 5123 9555 6440 3867 862 
4095 5811 10133 10900 7278 8847 4367 8335 10620 
13384 16971 5054 6575 5631 4120 1156 5696 1421 
7993 1629 7614 6632 9431 3004 10180 12319 8433 
16928 11171 4301 4316 6259 6774 6354 11263 10571 
7838 681 1189 10535 64 650 2547 12395 12475 
13534 2372 701 5956 6802 1338 371 1646 16998 
12194 1865 7509 3275 6505 8380 15045 14968 8552 
5056 4952 843 1186 6132 1422 5381 1453 9816 
1211 618 10808 6051 5541 3117 3826 2814 10181 
1193 5591 5818 3879 2284 4019 13522 4260 4328 
60 3923 244 1295 574 1781 1918 2308 7228 
14294 7577 15579 12020 3745 477 10578 148 129 
6611 2821 1834 3022 8596 1261 8261 2196 1153 
6157 689 6493 5728 4191 4147 6268 6000 4925 
12627 3090 16615 10512 13390 9584 12675 1488 4271 
756 4714 263 5820 1573 8953 4497 11140 8894 
5198 4425 6302 794 4713 8646 7870 8411 7607 
11868 6034 4401 2559 370 1748 2834 3507 4861 
2082 1962 3339 5458 11496 2348 4876 4741 2536 
11785 566 628 11866 6694 196 3312 12469 1851 
9763 4862 3030 6357 359 1202 6097 3757 6896 
4280 631 2030 6581 4893 2283 5480 1695 9340 
864 7181 4564 12622 146 8924 1840 4869 5861 
3526 5039 10477 7316 4583 3105 4948 5359 2795 
3841 10941 7857 4004 5842 2518 11571 4382 5503 
2202 4230 4695 2123 6859 6604 4848 6616 2184 
1575 595 5070 6325 9347 4048 297 10891 13805 
9941 627 7580 6629 5746 7213 3902 2534 2630 
10041 14253 2339 15378 13625 8698 144 1785 5331 
5353 7949 10848 17562 11219 12065 17147 403 6929 
9239 14199 12458 2201 1008 4402 11187 10660 8494 
11793 3898 11188 10499 7019 12821 13742 17530 11281 
9076 3084 15576 6919 9524 8310 17412 3449 3777 
15735 14409 12362 15495 17349 11836 9864 10798 7353 
5115 7392 12198 13772 11239 8082 8158 16790 6834 
15347 13586 8437 14522 6944 8706 5546 3768 9477 
14867 7940 11152 10446 13240 14420 16309 13629 14958 
16655 12942 8155 14357 9607 8211 249 1225 3911 
10867 8176 15282 4005 6195 2900 6885 17303 13786 
16951 8615 8761 16382 12055 11252 12378 5927 2968 
963 2633 12823 17775 17291 13303 16623 13485 15996 
14582 12488 9100 9198 13568 16289 13523 11343 11699 
15720 16396 8726 8422 13019 16557 13976 13646 3510 
1836 13098 14417 14232 16287 14594 13217 10930 5407 
6741 2490 13732 16697 14084 17154 14319 10856 1103 
2942 16525 10161 16377 14616 8273 817 8105 10877 
17462 3603 17405 9114 7418 14282 7079 2528 9835 
13172 14550 14133 16076 8353 9735 7791 3162 9307 
1287 1413 6533 13743 6196 16561 13040 16178 8933 
15189 12716 8689 805 4336 14843 2760 8932 3310 
7633 2134 16189 8039 13734 11201 1895 3270 11619 
16731 11926 16226 16104 12384 11055 11046 11292 5262 
11711 8258 15908 13603 14412 14018 11208 5736 17204 
14952 16070 15324 14863 4340 10282 8934 17615 14724 
8819 375 9775 401 11949 2669 4648 9801 2362 
1893 2853 17754 16032 13179 735 4361 3641 17636 
13376 12972 15167 1675 6672 2553 17622 12847 15175 
12855 9420 7189 3786 3810 1877 8540 16795 11115 
17396 2151 2967 2289 3583 16037 7269 14987 17036 
17177 5328 8086 4205 5168 3394 11968 13495 12568 
2810 2259 1127 3895 10264 6981 14020 13791 2065 
5839 17387 1607 12434 6247 6532 7138 9046 11480 
14573 13858 11319 7679 12114 3743 4371 2213 5065 
2150 8995 8816 7555 8718 3042 1804 8645 614 
5887 5385 1392 9179 4165 6453 7235 2097 4666 
3836 10908 9251 9090 9200 14176 16042 12421 441 
5061 1461 11587 9421 17175 3286 4601 8476 3368 
17240 11684 8799 17292 16258 5562 10690 12665 8363 
11116 2009 6709 9868 10393 12845 14825 12179 5310 
3992 6039 5714 1325 7675 9807 4622 11856 2987 
7265 9211 11043 4362 7922 10469 15601 2377 1868 
6799 10119 15605 621 7504 16078 5033 11534 8515 
7625 6399 4414 4096 12074 13341 14429 16188 1733 
6492 11778 7000 1028 3461 16834 8004 2535 11879 
7131 2852 11749 10834 7859 5186 5140 5055 4388 
7206 11087 16693 17364 2280 3999 1264 4712 8935 
5691 11703 8492 7242 7220 12573 4536 3382 11143 
7115 16542 16263 7494 2190 9933 546 9700 12482 
7377 12460 6094 9483 1728 6808 5363 2517 9500 
12756 10642 8805 5352 488 360 3123 10625 5464 
14971 10212 9945 3940 1839 10140 8314 14021 10273 
6378 6161 7983 4739 12476 725 6601 3450 8859 
4309 251 2155 12195 17838 1430 3863 11600 4991 
4770 2531 3717 4971 4126 2881 12649 886 17262 