# vtk DataFile Version 5.1
Generated by LIGGGHTS
ASCII
DATASET POLYDATA
POINTS 17850 float
0.0083085 -0.0165567 0.00207208 0.00743728 -0.01539 0.00185658 -0.0116995 -0.0123147 0.00221415 
-0.00995537 -0.0146227 0.00212478 -0.0142421 -0.0101269 0.00251546 0.00833303 -0.0103269 0.00185899 
-0.0165045 -0.00920934 0.00258041 -0.0131491 -0.0107137 0.00244096 0.00537735 -0.0102229 0.00208636 
-0.0186742 -0.00929585 0.00206146 -0.0169539 -0.007594 0.00258439 -0.0114862 -0.00719522 0.0017571 
0.00491248 -0.00777925 0.00201322 -0.0128226 -0.00715245 0.00200769 0.00571298 -0.00529974 0.00203825 
-0.0138149 -0.0050514 0.00217953 0.00483825 -0.00244064 0.0021747 0.00295683 0.000958271 0.00217619 
-0.00312658 0.00403612 0.00233328 0.00201912 0.00455246 0.00284324 -0.0280211 0.00887978 0.00292205 
-0.0285989 0.00566025 0.00228174 -0.00226718 0.00614159 0.00229419 0.00385328 0.00681983 0.00237914 
-0.0228398 0.00739093 0.00183674 -0.00329715 0.00666144 0.00215517 0.00221402 0.00785012 0.00227656 
0.0063915 0.00824989 0.00209936 0.00393773 0.0101826 0.0022372 -0.00787573 0.00994381 0.00229277 
0.0223023 0.00876146 0.00280806 0.0270735 0.00921745 0.00272554 -0.0166645 0.0116645 0.00224543 
0.0209666 0.0107923 0.00270488 0.0248086 0.00998419 0.00270458 0.0259232 0.00993614 0.00277927 
0.0223541 0.0109583 0.00301181 0.0243792 0.0111823 0.00289846 -0.0199625 0.0111765 0.00163081 
-0.00902713 0.0126013 0.00201227 0.0239296 0.0122292 0.00281949 -0.023434 0.0168064 0.00227101 
-0.00885379 0.024264 0.00240845 -0.00653875 0.0239112 0.00281352 -0.00535038 0.0247435 0.00191515 
-0.00908464 0.0255367 0.00242378 -0.00792891 0.0267364 0.00250139 -0.0050836 0.0272552 0.00235824 
0.00463595 -0.0250381 0.00383188 -0.0162369 -0.0229834 0.00290283 0.0118675 -0.0244509 0.00246492 
-0.0192393 -0.0216989 0.00167364 -0.0203443 -0.021253 0.00230601 -0.00982581 -0.0172042 0.00280186 
-0.0155123 -0.0201093 0.00232217 -0.01148 -0.019373 0.00213526 -0.0212044 -0.0188729 0.00143709 
0.000546761 -0.0177743 0.00512884 0.00564775 -0.0179819 0.00287065 -0.019841 -0.0170009 0.00181533 
-0.0180277 -0.0181788 0.00204356 0.00619531 -0.0194293 0.0023301 0.00709055 -0.0175927 0.00243325 
0.011878 -0.0158778 0.00195517 -0.015714 -0.0153481 0.00201522 0.0136798 -0.015375 0.00233501 
0.011317 -0.0139542 0.00168848 -0.0088966 -0.0156367 0.0028912 -0.0054495 -0.0166063 0.00317328 
0.0071547 -0.0141414 0.00217628 -0.0173995 -0.0123781 0.00214696 -0.0161615 -0.0123546 0.0022119 
0.0070581 -0.0128549 0.00205404 -0.0159926 -0.0109696 0.00218707 -0.0141581 -0.0120378 0.00232323 
0.00629484 -0.0115251 0.00204127 -0.0105328 -0.0116829 0.00234048 -0.00834254 -0.0109973 0.00211876 
-0.0157988 -0.0101518 0.00295858 -0.0144876 -0.00862586 0.00227927 -0.0115778 -0.00941635 0.00210824 
0.00563145 -0.00887045 0.00224468 0.00853573 -0.00899765 0.00178639 0.0103778 -0.0089877 0.00155618 
-0.0161138 -0.00820676 0.00216085 -0.0140963 -0.0069338 0.00203151 0.00371147 -0.00741665 0.00202846 
0.00754868 -0.00800937 0.00254445 -0.0158724 -0.00552733 0.00181647 0.00673062 -0.00704443 0.00214277 
-0.0266609 -0.00676214 0.00189312 0.00528634 -0.00420258 0.00187324 0.00396195 -0.00168358 0.00204381 
0.00212208 -0.000360075 0.0021322 0.00209062 0.00169086 0.00197453 0.00403922 0.00123632 0.00241565 
8.46902e-05 0.001967 0.0021754 -0.00121776 0.00309762 0.0020032 -0.00784813 0.00367579 0.00176464 
-0.00190853 0.00500627 0.00173139 0.00866777 0.00484207 0.00202509 -0.00451037 0.00596623 0.00211904 
0.00757222 0.00605321 0.00183353 -0.0246057 0.00685095 0.00217854 -0.00689163 0.00563514 0.00225674 
0.00839853 0.00674432 0.00231672 -0.00795893 0.00738537 0.00233281 -0.0026573 0.00763094 0.00233671 
-0.00160178 0.00704151 0.002393 -0.000639987 0.00785215 0.00188892 0.00464433 0.00792847 0.00221081 
0.00753898 0.00753912 0.00242472 0.0248315 0.00716908 0.00307713 -0.0126372 0.00811247 0.00215603 
-0.00660931 0.00732619 0.00231464 -0.00536297 0.00750837 0.00193185 -0.00438494 0.00844512 0.00225175 
0.0018405 0.0091074 0.00226504 0.00297893 0.00964177 0.00202539 0.0232527 0.00751846 0.00248298 
0.026781 0.00674826 0.00276035 0.0284103 0.00741554 0.00285193 -0.0208069 0.00958358 0.00176685 
-0.0130215 0.00975832 0.00212316 -0.00971949 0.00855674 0.0023276 -0.00660201 0.00946917 0.00235178 
-0.00544633 0.00940475 0.00246747 0.00089648 0.0102423 0.00195199 0.00831792 0.0095385 0.00199267 
0.0213192 0.00830171 0.00266514 0.0240213 0.0080869 0.0031263 0.0259115 0.00859891 0.00266365 
-0.0192451 0.0090131 0.0021271 -0.0153754 0.0102116 0.00215558 -0.0120382 0.00921701 0.00237961 
-0.0100904 0.00966106 0.00241338 -0.00366282 0.0107387 0.00196312 -0.000528995 0.0110926 0.0020731 
0.0056374 0.0111751 0.00212533 0.0207213 0.00954517 0.00292278 0.0234412 0.0089351 0.00279901 
-0.0188971 0.0100691 0.00192177 -0.0137896 0.010526 0.00234922 -0.0081858 0.0109759 0.00238554 
0.0198256 0.0102366 0.00266231 0.0218975 0.00983211 0.00265691 0.0236065 0.0101205 0.00281013 
-0.0114556 0.0111157 0.0022299 -0.00686257 0.012048 0.00239057 0.01928 0.0114784 0.0023703 
0.0250716 0.0120846 0.00347031 0.0269269 0.0107913 0.00280236 0.0204094 0.0127779 0.00258905 
0.0266105 0.0122305 0.00313306 -0.00657916 0.0133621 0.00230272 0.0183298 0.0132125 0.00241799 
0.0217184 0.0131264 0.00294051 0.0246435 0.013214 0.0030362 -0.0185179 0.0143594 0.00198097 
0.0193687 0.013395 0.00207434 0.0238704 0.0141091 0.00285632 0.0253323 0.0141322 0.00306952 
0.018289 0.0146778 0.00242796 0.0196431 0.0144654 0.00237095 0.0206868 0.0146823 0.00254841 
0.0226816 0.0149718 0.00293608 0.0238673 0.0152305 0.0030733 -0.0214443 0.0156363 0.00202392 
0.0170029 0.0168997 0.00226193 0.0162624 0.0177878 0.0020769 0.0192888 0.0171869 0.00235394 
0.0175796 0.0184579 0.00242479 0.0186087 0.0180405 0.00241329 0.0223134 0.0183364 0.00303624 
0.0158102 0.0204088 0.00217705 0.0170946 0.020328 0.00233881 0.0196868 0.019194 0.00223725 
0.0129494 0.02156 0.00206994 0.0208915 0.0206804 0.00267912 0.0189584 0.0210437 0.00227305 
0.0199485 0.0213525 0.00259738 0.0101735 0.0227978 0.00196685 0.0108008 0.0246035 0.0019206 
-0.00629651 0.0259421 0.00261316 0.0101722 0.0259829 0.00269092 -0.0105682 0.0275069 0.00247491 
-0.00699398 0.027352 0.00249622 0.009568 0.0265485 0.00188582 -0.00794976 0.027851 0.00253425 
-0.00689193 0.0285056 0.00229327 -0.00579113 -0.0281356 0.00330291 0.00784851 -0.0278266 0.00205366 
0.00920296 -0.0271027 0.00225154 0.0118286 -0.0269207 0.0023168 0.00828305 -0.0241095 0.00187745 
0.0120526 -0.0257444 0.00215254 -0.00411985 -0.0245731 0.00354497 0.017165 -0.0238842 0.00304649 
-0.00922586 -0.0222217 0.0024278 0.0135798 -0.0230532 0.00214791 -0.0183919 -0.0228644 0.00160287 
-0.0172214 -0.0226898 0.00161632 -0.0148747 -0.0216612 0.00181783 -0.0134889 -0.02091 0.00213302 
-0.00830029 -0.0209357 0.00288877 0.00860528 -0.0218018 0.00211437 0.00140304 -0.022089 0.00272757 
-0.0212799 -0.0202442 0.00223397 -0.0192303 -0.0201809 0.00171395 -0.0193446 -0.0186103 0.00223416 
-0.0179134 -0.0194583 0.00180582 0.01111 -0.0199988 0.00192184 -0.023028 -0.018097 0.0017083 
-0.0152451 -0.017598 0.00163658 0.00773114 -0.0188237 0.0020834 -0.0183748 -0.0168061 0.00213076 
0.0126557 -0.0167053 0.00156185 0.00854978 -0.017501 0.00306359 -0.0184572 -0.0142579 0.00196678 
-0.0169966 -0.0153705 0.00217646 0.0100604 -0.0156538 0.00188826 -0.0176033 -0.0134854 0.00211821 
0.0095028 -0.0143646 0.00195654 0.0127445 -0.0146795 0.00166907 -0.0195382 -0.013064 0.00202373 
-0.0159834 -0.0135387 0.00196119 -0.0146022 -0.0153191 0.00255329 -0.00544385 -0.0160071 0.00175672 
0.00591245 -0.0145623 0.00210908 -0.0144278 -0.0142525 0.00280329 -0.0131496 -0.0137289 0.00257883 
-0.012015 -0.0134738 0.00257951 -0.00731622 -0.0133253 0.00199536 0.00515398 -0.0125772 0.00219378 
0.00597948 -0.0133901 0.00204949 0.00896157 -0.0126012 0.00214269 0.0101234 -0.0113804 0.00205195 
-0.0204821 -0.0111988 0.00206681 -0.0173708 -0.0112614 0.00215536 -0.0149407 -0.013013 0.00189537 
-0.00921487 -0.0136369 0.00194436 -0.0059704 -0.0124041 0.00182234 -0.00487218 -0.012519 0.00223445 
0.00885002 -0.0114093 0.00193536 0.0267535 -0.0114373 0.00339143 -0.0149928 -0.0114178 0.0025606 
-0.0136953 -0.0113626 0.00311041 -0.00895786 -0.0121192 0.00193505 0.00356952 -0.0120254 0.00201783 
0.00459057 -0.011423 0.00247042 0.00767213 -0.0112434 0.00160751 0.0097272 -0.010002 0.00171815 
0.0111715 -0.0111985 0.00160803 -0.0252873 -0.00942597 0.00212289 -0.0205571 -0.00980681 0.00176268 
-0.0194702 -0.0101788 0.00193167 -0.0174344 -0.0100254 0.00236172 -0.0114285 -0.0106467 0.00222451 
0.00164721 -0.00988894 0.00194516 0.00370533 -0.0105805 0.00208657 0.00669921 -0.0100376 0.00194418 
0.00912322 -0.00970551 0.00261582 -0.0200422 -0.00886078 0.00180804 -0.0126771 -0.00971973 0.00208274 
-0.00926354 -0.00984884 0.0017218 -0.0175732 -0.00889146 0.00287571 0.00177599 -0.00844446 0.00231372 
0.0043 -0.00872208 0.00205082 0.00976323 -0.00799446 0.00190459 -0.0181579 -0.00759779 0.00259626 
-0.0158613 -0.0070618 0.00207738 0.00178588 -0.00731989 0.00198224 0.00532397 -0.00638168 0.00210008 
0.00415153 -0.00635048 0.00172187 0.00678444 -0.00590143 0.00224377 0.00788201 -0.00648301 0.00171993 
-0.0155221 -0.00446991 0.00191172 -0.0126922 -0.00460103 0.00252307 -0.0114853 -0.0043516 0.00191095 
0.0011685 -0.00567557 0.00171208 0.00240645 -0.00590116 0.00185074 0.00347339 -0.00522729 0.00194421 
0.00772738 -0.00339564 0.00168504 -0.0112438 -0.00337058 0.00232194 0.00117068 -0.00470336 0.0023076 
0.00585366 -0.00313066 0.00219159 -2.05764e-05 -0.00280729 0.00172581 0.00402317 -0.00333073 0.00219964 
-0.0264633 -0.00188591 0.00192575 -0.000313364 -0.00169761 0.00171905 0.00246821 -0.00264401 0.0020285 
0.00600093 -0.00195142 0.00181333 -0.000805137 -0.000584458 0.00195377 0.00210866 -0.00142479 0.00209546 
0.00314229 -0.000853772 0.0021691 0.00512259 -0.00082634 0.00192677 -0.0242608 0.000287304 0.00223271 
0.00628103 -0.000722536 0.0020974 0.00763725 -0.0008205 0.00196087 -0.0022096 0.000893938 0.00228816 
[...]
POINT_DATA 17850
FIELD FieldData 6
id 1 17850 int
9925 11148 359 1416 11299 379 9620 15961 5869 
194 7724 6097 6431 2594 8710 17087 732 5983 
3086 692 11277 5248 16100 15089 15988 8911 546 
4467 16520 902 10420 16730 8167 13362 4981 13884 
2243 14977 6897 6318 8565 4254 9266 9833 11602 
8144 15837 6383 3799 5977 5499 3201 6050 5583 
242 13357 11589 6015 4458 7858 1639 10726 17125 
2413 7438 12042 4674 5671 3203 10 14018 13024 
1804 16389 11237 4372 6587 14215 16259 7296 11847 
16327 16495 6868 16289 673 13857 9318 9139 16855 
10822 1599 10667 5910 1381 14532 17202 2177 6590 
10977 2641 16121 17816 13828 7757 1525 5069 12958 
14302 12708 7979 15830 7070 2271 12064 15816 8269 
15248 5870 3627 1720 7970 3633 10666 11212 5041 
13719 17780 10980 12278 11510 2922 16152 4632 1337 
8040 14917 11994 14301 17810 12302 3269 913 15668 
17076 10301 13111 11697 15571 11974 17768 17095 12186 
11145 10052 4262 728 10460 15823 4059 13058 13490 
8789 9515 6400 1378 712 786 17442 17644 3913 
4152 6222 6532 3916 3788 3948 2175 729 5513 
10051 399 8523 12354 6192 6691 4718 6828 5241 
3956 1800 4429 15114 6466 15858 1607 16805 12115 
1872 3733 7218 11818 5257 499 1447 6817 10010 
9889 2259 13252 4769 15246 14017 1828 16156 65 
6477 6981 15969 6518 11926 10207 16126 1777 16723 
9221 10765 5649 2186 9674 7288 3640 2767 6478 
15095 14856 13711 7629 4487 2731 7772 17142 13767 
16458 7486 16223 5267 4792 11864 14210 886 17394 
16045 3409 5437 17013 13335 4643 11971 8764 15324 
13114 4649 3917 11988 14129 2227 9324 8807 14189 
2637 106 9803 13020 4680 5363 11163 11015 6646 
13359 1138 2376 3825 5992 15833 1867 5520 17275 
5857 17653 2363 1798 10291 655 104 2333 11732 
4895 6990 5987 13097 3505 6682 13203 1605 4537 
10105 8617 580 17078 17339 13681 10014 11871 3446 
2302 8001 11850 762 3784 16892 1737 15224 8205 
13248 7615 1484 11294 6514 5180 4791 7860 773 
15876 5759 11742 10384 14682 12576 7494 2687 8448 
16959 7306 9286 10759 15197 9496 10560 10996 4833 
15695 15394 13937 12306 17189 17593 2732 12015 2014 
14792 8702 2705 11326 7393 8560 16481 16517 3279 
10751 10170 4577 531 2365 4346 4841 9220 9948 
2085 3356 9784 3331 2122 7673 394 4141 1253 
6095 12468 3604 7954 14396 353 12732 159 5815 
3018 12744 9752 3871 6287 10664 12149 14314 1490 
9859 3923 9252 15606 15465 16195 11712 17561 3357 
15241 5304 16796 13714 4902 10098 10770 13373 1050 
12965 15223 11115 8204 13885 7327 6467 16643 10768 
5802 3400 2873 14847 6294 5780 11158 8314 6631 
4952 2120 16862 993 4188 624 15384 9048 896 
8968 13135 8914 10257 5502 1293 5567 288 4339 
12132 270 4908 5812 3135 2353 10502 12322 1744 
12054 11155 15678 16452 14687 14659 7902 17812 9715 
8086 11368 2478 16131 2970 7147 1487 11467 206 
629 17362 14289 8034 10210 4911 13169 5621 5973 
16402 8464 5025 14073 11394 8977 4466 8489 5669 
12147 14046 6706 11484 15347 14363 8181 672 15640 
823 5673 13547 12663 8813 17839 775 12823 14358 
6842 1044 6895 8965 2431 17601 5422 11144 12219 
15840 13067 522 14388 15231 2104 11694 6366 527 
2543 9070 4057 7188 17823 9735 4562 13013 8494 
13303 3239 16457 10271 10931 17039 8808 13367 13176 
17709 14754 6275 16438 9229 11014 16172 2838 4499 
6148 1315 16720 14956 927 918 883 2522 2267 
297 2562 1545 5936 10329 13115 4748 8982 17206 
17640 6984 2000 12688 11186 2198 14834 6789 7684 
5808 4693 7465 1204 4917 1647 11283 15009 1760 
1797 11612 16968 7966 6321 4502 11042 3662 12321 
5138 12625 861 1018 357 10254 1344 11106 11695 
8666 1443 11101 11750 9247 14275 8588 12425 5179 
9781 15344 2459 16465 5391 11415 416 11364 14837 
14664 10140 3273 11980 5117 13494 1071 11481 7544 
6965 13152 2640 7730 10707 8647 6074 5868 6122 
15187 6724 444 12764 8146 9575 7886 13626 2197 
10743 5226 17591 1311 15433 10914 2521 13629 12974 
2648 6209 17702 12474 5599 3179 6136 1718 16626 
11658 3260 8507 1652 13 10229 5290 9256 11684 
2451 12721 618 12285 16576 16082 10403 6344 17311 
9407 3966 13141 15379 4849 8540 15029 12312 4676 
1773 2424 5451 11323 8140 10725 10352 14431 585 
12008 15738 12212 17566 3839 17228 6191 15818 10917 
11939 9201 5835 9382 6486 12334 15205 12711 17274 
12393 3655 11172 3988 2844 14041 1960 17180 5945 
11758 3783 12455 14095 13450 6892 5165 15769 10972 
14389 8740 10778 996 6184 7469 15666 10873 3079 
15255 14733 7072 6233 9125 6711 14507 7080 7804 
13445 9770 17314 16164 1795 2977 6705 8573 17084 
15806 14444 5806 675 15393 8476 17504 15579 10402 
6980 11390 13764 8420 13951 6440 17664 12368 1929 
13607 23 9581 2573 7035 2557 16318 13940 12143 
10854 17350 13841 4195 9801 12620 4194 8869 9816 
8374 1898 6218 6047 8031 12890 2850 5907 8833 
10148 11663 8900 2778 2341 12021 5316 368 17822 
2583 9926 17061 11719 6849 15794 1593 6045 13449 
2910 4148 6798 14541 9666 16115 3292 14827 3865 
10966 7241 9433 14335 12111 9396 8935 4747 1347 
10875 6603 1363 8452 17781 2420 6966 10933 284 
10326 17231 6948 6737 13679 2616 3015 15620 4398 
8633 33 3439 13230 16630 5631 6332 15055 6443 
16350 1941 9351 9549 16947 15444 5789 1371 17241 
6838 13717 1916 4761 1054 1815 13226 9018 3390 
94 15553 1528 1296 7905 14695 6134 15031 5193 
10372 11060 6265 6245 5174 2831 10284 11303 10145 
15508 11521 8175 9017 8375 3095 16698 9196 11074 
8949 3370 15155 8424 1537 8712 16555 15213 6643 
87 7864 12723 17631 4922 4518 6633 1303 6890 
2619 2978 6681 364 15313 1158 13159 8426 15408 
5798 2993 15308 3044 3558 17238 1618 8642 17488 
10907 7693 15807 8857 1399 7591 1631 4710 11714 
17831 3272 14994 3555 2079 14425 1145 16451 93 
545 17638 15608 1954 10017 16344 14591 4408 8545 
15240 7381 8825 2802 7847 12263 16092 4842 10449 
15157 15943 13522 9699 16437 602 17258 4579 12231 
2450 4158 2319 14262 2332 2803 7850 10490 688 
5461 5198 10240 2349 6284 14010 4142 12820 15025 
17234 12680 8307 16564 3872 6654 14630 16288 4317 
2727 3141 10654 4909 795 1586 469 6570 8865 
6520 12687 2220 14904 9360 1148 1902 8053 17697 
6820 13690 946 1166 8259 4256 12712 4865 12593 
2865 689 9112 17769 5496 7626 8054 507 5687 
9235 9903 1781 3466 5972 8926 10748 17470 14298 
12893 11743 10166 17341 10215 7509 7405 1959 16039 
15971 10593 8873 5730 8409 1167 1767 4551 4603 
12956 3234 2391 2983 6686 9997 10532 1589 10564 
12311 3137 8775 5480 16745 11579 8014 13009 6889 
9680 13018 16645 12676 6588 17809 17579 4444 9146 
15502 10195 14048 14216 11574 2058 3982 2425 14416 
2781 558 4430 5542 6589 3419 8029 15966 1368 
742 17196 9542 8568 3739 17122 3859 12694 3139 
9586 11751 10934 1909 15570 13017 8073 5361 9108 
16699 74 11951 10876 573 9604 1258 7298 17369 
13270 9180 829 17641 13414 15150 13924 17137 1076 
14950 3590 2625 13387 15933 13465 9526 4230 4550 
10779 4708 10355 2289 10864 4285 12622 4460 464 
16665 7945 7877 15932 15824 8212 11304 12097 222 
971 9359 8313 11421 12942 9480 11262 14134 9539 
3535 13334 6472 968 6541 14406 9461 15872 10058 
12376 2505 8461 2734 9625 9429 13174 3213 7039 
6944 3484 652 3770 11204 1751 14082 8441 16470 
16647 2221 10974 984 8352 9607 13661 14211 8940 
5243 14573 17113 13821 16202 2531 16043 14107 5310 
13888 14843 14456 7955 5508 8777 8306 17094 16380 
11590 191 17192 15204 2189 15982 17280 9377 14748 
12563 12282 4625 11946 1651 16591 3833 595 13589 
10690 8663 9110 5919 6807 4403 17802 4547 13729 
15285 4629 453 4860 1185 9027 15624 15132 10681 
6850 16719 6866 10576 3091 9494 16453 2665 11330 
11007 11267 7403 13574 2853 11508 9420 914 15418 
8384 265 10307 5511 16052 11282 2253 10354 10969 
7319 11911 12161 9227 9968 1 9626 10029 14145 
15524 7869 16595 2527 6506 2642 6888 10345 7196 
435 4622 7872 17249 9144 14061 3149 12460 11269 
4380 11803 16189 17760 8859 4548 14879 1630 8407 
4847 11901 6571 15615 14623 15170 5705 12489 4901 
13904 3175 12308 12791 16893 16813 17298 6129 4421 
15015 7984 2428 3049 13051 12443 7126 15512 12078 
11026 5111 9031 1380 17800 2381 14293 11357 2554 
17815 7087 797 17074 10528 11604 13564 17755 3548 
16688 12626 11890 15388 10721 11777 207 8625 1803 
9543 6357 15822 16937 17742 2859 11745 16264 17289 
11676 12926 16705 13147 6432 9722 14009 3204 1111 
11776 10497 647 7169 432 15459 5225 5760 3950 
10023 10036 6428 17230 17603 9202 8340 13759 9808 
5440 10467 3601 11581 13046 10392 2624 9614 11792 
15287 9011 13802 9613 13005 7918 16972 15998 14752 
16963 5724 1637 4828 4888 13810 11942 4092 2882 
1203 1292 11754 8709 4445 12182 6701 8997 16741 
15432 2255 14629 12386 6746 13014 5984 1402 17788 
16086 2138 4312 1084 12301 3500 12014 5572 7832 
9757 5579 14558 2486 2635 7575 14534 8525 17209 
15475 12762 7448 16785 5463 15245 6788 14846 642 
11118 9900 5030 5177 10733 15790 1627 1774 10852 
3355 2858 15051 1053 6811 12957 17091 3202 9002 
8361 1172 6921 8403 10510 10118 11949 6862 8875 
8121 7952 16304 8988 11795 6350 3437 1838 12774 
16766 14851 2011 15731 5269 3085 1314 374 10561 
13432 3491 17493 15641 1879 5713 3372 15768 3773 
10753 8657 13511 16846 6194 2528 5485 17832 4576 
12194 8831 5653 5886 9388 16144 754 687 14405 
14410 14418 11093 15276 13585 12363 12795 3257 4397 
5793 6112 8785 4589 16727 12895 12699 2471 11832 
13861 12377 7972 11132 12248 1956 14459 14726 10272 
5339 16287 8799 11199 4279 14818 16004 7927 14926 
7981 9149 15759 16408 2548 10075 3751 5787 10538 
9856 4046 4712 13567 3861 6181 4356 17356 7144 
3230 1969 2171 686 7302 7797 14793 17319 14429 
1654 752 3860 13576 6385 720 3076 4036 6363 
8913 9688 12538 9408 9645 5854 6775 16351 3920 
7547 15166 2996 15385 12806 11180 16483 13689 398 
13635 8534 6182 10641 17340 8993 8080 13540 15319 
12337 14067 392 7924 9792 8177 8653 10629 6164 
12372 13745 7537 15882 3736 2581 1974 7333 8964 
7982 1239 14443 8955 9879 6941 14494 8433 13309 
16219 1978 1582 11992 6953 9452 7774 9527 13173 
4181 5547 10973 5501 6569 5093 11757 4325 3666 
10639 6471 8399 14823 333 8910 7821 4416 9115 
11624 636 12479 14654 7764 8619 7262 10088 15010 
2845 10519 13906 14037 11844 15827 5384 3057 3905 
11614 8337 16977 3998 15201 11530 103 11211 615 
10077 3238 4399 14892 3894 8119 13611 9863 13648 
6673 7294 11491 6768 16993 1919 7649 3746 15472 
11487 427 6867 2125 5459 10000 108 14859 6765 
12472 12375 9602 16148 8905 12041 16061 13037 12333 
8112 3877 3267 2661 7166 14984 11635 11804 7500 
193 7502 2268 9953 5762 12266 1153 3545 10757 
5087 15868 8425 10839 16242 10234 10655 14574 2415 
13770 16666 13227 4061 7425 6802 9707 5042 3531 
17753 17219 4407 10021 16455 11794 14478 12100 10309 
5220 12701 11788 6536 4945 12002 15435 4555 12215 
4097 7066 6176 6986 5549 239 8486 658 5797 
4321 6620 2372 12944 5766 2569 13675 6513 8675 
7390 4018 10541 3195 11296 3443 14451 15135 7276 
10661 3345 15810 7118 8742 4019 16248 9263 9590 
6166 10850 17628 15090 15185 4003 6259 6903 9436 
5016 17132 7149 12415 11739 11532 13300 3136 1181 
11855 1858 11469 14874 13084 8392 12689 13424 17082 
12257 5979 10044 10475 3771 5346 9566 15535 3759 
8153 9848 3631 7607 2701 3489 14770 355 8620 
2318 14064 14602 16624 13023 15805 10063 238 16497 
3762 9934 4983 5848 10627 13149 10092 3037 13196 
244 2162 6212 4468 17630 8618 10298 4916 8069 
7279 16284 7548 12781 11601 10491 13521 16464 7471 
4774 15537 17460 10662 14961 7741 9262 12465 4182 
6464 7447 7346 17597 10321 1615 1431 12053 3930 
5297 1769 7339 1784 5658 70 9629 628 3673 
16113 5010 10535 4651 2437 15751 8838 1357 7641 
4941 2561 3688 9609 13722 54 9059 17305 14515 
11018 7176 11088 10624 12628 12310 16965 13671 11842 
5051 15077 13600 5924 3543 10762 17718 182 1738 
1217 17154 10660 1928 4509 7527 11450 930 4697 
7960 8497 13033 16634 15270 6249 1663 8300 4980 
10573 4593 14838 11628 13883 6270 14119 2430 7057 
1010 8079 11525 17283 13984 3755 11572 17433 7843 
5396 2060 14797 15935 933 9595 16834 9759 17778 
14462 7459 6808 7439 15930 4208 8708 12397 4490 
9524 1725 5555 3829 9940 9087 3975 4160 4062 
10374 4563 1403 12657 5487 12747 11457 16267 1141 
9217 7735 15081 9747 17725 9341 6847 3024 15206 
8422 13997 10365 10463 9615 9383 13077 8454 14267 
6470 16590 5955 2704 16649 9113 8222 3223 13950 
3834 13040 7558 5697 8844 4406 3394 5574 14883 
7705 6475 1120 2693 17244 6457 8872 9553 1808 
7220 15752 11501 15160 14489 15997 6062 12547 3748 
6535 6080 12880 1080 506 6072 10618 11503 14915 
12483 17218 1903 2218 15563 16257 17520 9257 8995 
5566 15732 1860 15056 2788 5961 6202 8250 14166 
2462 6235 3147 6836 1685 2702 11888 3281 4299 
723 6700 12891 8787 12129 7016 2416 11379 12787 
15852 10829 16319 640 15927 16623 1813 10658 3612 
8814 4388 3933 13900 12611 4381 10987 11339 4305 
8358 4735 8861 9432 8797 14764 11096 9100 5303 
11955 10668 8191 14759 13917 8428 11738 3959 2094 
440 16679 10553 9930 12851 7883 7733 2830 1213 
4077 6465 1917 818 6548 8097 13653 17848 13961 
10981 3441 16588 12277 8643 17279 11374 6936 17104 
4 6114 8124 3452 10588 9807 1317 8960 2287 
1691 3955 14116 1975 4365 15670 817 11460 12567 
4633 13233 16008 11285 2664 17134 14547 10930 8369 
4382 16130 17750 6521 713 2441 6012 11507 15648 
12327 2448 16606 3253 8013 12854 2719 11691 12819 
7394 12667 11333 6861 5565 11414 5037 17476 8110 
6277 11904 12870 7011 9726 942 17710 16060 1278 
162 15405 11030 13094 10487 10737 8846 7701 340 
13569 13847 2317 9116 6773 12420 1038 3993 4592 
1281 4927 1382 1853 3304 9486 2950 990 9755 
16642 2839 13291 12359 7861 2613 15559 5776 7179 
6398 6544 9920 12150 15755 489 15318 12777 16818 
9045 4969 13591 6300 11428 2915 14398 6792 6232 
5315 9949 2426 11389 2669 14329 12227 10458 8898 
9179 1367 8004 1888 14963 15462 9745 1506 8087 
5509 2726 14185 13200 1279 34 10096 12702 346 
2826 3227 12047 9894 17637 17047 5420 9796 2612 
15962 3985 8593 1930 10084 2667 17222 6317 9898 
14080 16845 11325 10720 13510 4114 7606 11235 3797 
10268 7880 696 12384 14822 7377 4034 14949 2819 
6278 4596 1549 8782 4454 7456 11787 234 3889 
10792 14516 14296 7261 4539 809 8774 16874 1468 
3617 17543 2236 9188 9015 2658 2787 15464 11439 
1249 3152 3944 17153 12605 11513 17756 16784 1088 
5840 2675 1472 16850 13571 10581 7396 5598 13524 
1235 2780 16374 17501 8956 9041 6712 9731 15446 
9177 4933 4636 8303 1580 12104 5060 11274 3486 
9795 12727 22 8322 3229 3953 4255 6678 11335 
10863 7170 14147 11086 3325 1672 2342 75 12682 
8500 643 3862 341 1267 1231 14711 1948 13364 
12793 4818 1433 1597 16752 10903 14921 15884 276 
13839 10539 4970 16291 15350 2039 12740 277 6626 
12643 4990 14457 16037 16187 17106 9985 15960 5963 
1174 12141 1270 9428 2590 5692 17663 2033 17771 
6127 2390 5378 1223 9918 13297 13213 11195 744 
4963 17835 4798 17334 1330 7380 17224 11630 10517 
7577 9338 831 11583 4947 17382 13947 657 3033 
13158 11773 10390 14929 73 6476 1142 17374 11217 
12516 15381 11430 13266 8077 11233 1074 12165 1734 
1633 1209 3887 10294 11865 11537 9636 17267 10806 
674 13326 17609 11103 17052 17658 4607 6016 289 
11241 626 2870 590 17126 10812 17479 8850 5096 
10026 8801 7324 5770 6161 7453 13320 12779 6110 
13703 13441 3650 14346 14449 10971 4309 9593 11128 
11779 7266 12651 10448 1097 7175 17505 10172 6417 
13546 15692 14234 7578 13737 14186 6622 83 8863 
1419 3616 14871 8646 4954 11292 12992 7661 17762 
10612 13744 2250 5716 2927 12952 13346 764 16955 
13956 7313 4108 10897 14842 6025 7734 9782 13837 
14927 1910 9439 7059 15121 16886 8758 12785 7278 
15744 11643 12980 6380 9584 3793 12145 89 13145 
15536 1712 9058 8188 14610 13333 3765 8656 7943 
201 7434 14766 13085 9008 16716 16536 10287 15023 
10775 5841 12805 14311 1886 13229 4157 367 3855 
10278 10260 2602 3946 11711 3302 12469 2833 4912 
3464 5324 9779 1005 15748 11331 15531 17098 7510 
13645 1576 683 6853 16243 3053 2102 1649 15970 
16758 13624 352 16646 3642 11479 4678 14378 17529 
13658 8050 10557 3722 14964 12826 4337 15299 5896 
13824 5076 14584 11302 414 9917 12686 15685 15401 
14889 16432 8589 12649 11244 6263 15173 2013 16321 
6208 11365 2481 6656 4343 17830 1372 4628 9053 
1031 14246 7209 17265 13647 14734 8288 14040 5933 
7043 7746 13700 10631 4914 10986 3070 1117 17729 
1812 14727 958 15429 12647 7824 4433 10939 15103 
5860 519 2140 5514 17495 4155 140 10089 6627 
16844 9465 11817 12077 17344 9423 7267 17026 12209 
3176 583 17427 10213 14320 9826 12999 9124 620 
2330 9453 4189 15831 2121 12297 11111 17604 17294 
15518 14731 15981 9995 4918 8680 693 4330 12423 
17169 4986 3242 263 17675 5745 4238 12603 16069 
17807 10054 13404 5393 5957 12608 3189 16169 1550 
14562 6193 7664 13537 8304 3181 15190 3307 13187 
16345 551 13878 1522 748 7232 10013 5882 3663 
1753 10940 5685 8173 2909 4892 14721 14678 2239 
15176 6379 12389 9219 15594 1977 17384 12775 1388 
7356 738 3520 17034 7838 7251 1876 11770 830 
3495 5698 12117 10783 17109 8335 12690 4569 7207 
10881 512 16140 4395 3096 13899 5525 12167 3553 
17667 443 10119 9551 13354 3014 12672 8804 10150 
10155 2369 9520 3908 7125 10892 3020 2765 13736 
8233 12670 13831 14714 12487 198 5603 16107 13834 
3972 953 6952 3629 3293 8639 8169 701 8012 
17259 17689 15351 10137 11265 17824 13758 15783 14052 
12260 3119 13860 8268 7814 8847 11032 12484 3098 
12254 15151 5943 3089 15599 3584 11039 14901 5636 
3184 7531 365 6175 4248 10191 1011 7662 2932 
9966 14139 6404 16299 17596 11422 7801 10219 7367 
6111 12607 12524 2928 6434 16055 3373 15067 12725 
11523 14552 6534 5836 12203 1945 1309 13987 7728 
12808 9974 13060 8896 10204 3848 3763 10189 11667 
15655 4055 5596 5028 17107 14307 11175 2895 1638 
14935 2041 13943 1385 8626 9705 14741 8881 17525 
485 4386 10193 7809 11308 2304 6597 6389 5593 
5367 15360 10123 14007 799 16869 3769 535 16314 
15341 5678 3167 5867 477 1592 4044 4797 9374 
6499 5668 17270 7024 2628 6540 12968 17514 16930 
7950 16285 12258 1453 3351 2117 13382 3921 4261 
4590 1834 5258 9147 17415 10606 4822 11073 2559 
592 8576 3099 974 6348 5527 17575 835 15167 
13849 8794 5784 12581 13823 10586 1566 9681 17546 
10727 6137 697 12518 2281 10032 11358 9114 14543 
12896 10791 11559 711 11078 16427 8061 11698 4167 
8883 1845 3143 9858 8075 11455 4161 7828 14263 
14220 17019 14433 13010 14689 11084 9029 8556 7895 
14253 8051 8342 793 2743 5889 3870 10081 10022 
17481 102 13528 17408 13459 9308 9492 17037 16410 
2473 16633 13572 15175 16125 1905 10682 8798 2396 
2863 16656 406 17540 2344 12517 8631 2035 5026 
6399 2529 16149 5847 11516 6566 16022 9875 13792 
17245 13541 10858 10677 7625 1938 7418 17614 17247 
5168 1943 12724 123 14315 14155 3172 15676 5453 
17424 14173 10925 9499 13330 508 245 3277 9236 
839 409 2293 10385 8736 1680 6975 3317 6297 
10203 13916 11424 7901 14476 2201 3326 14757 3671 
10270 2659 10513 4472 12984 7446 17266 4764 11476 
7789 2811 7650 16951 7670 17108 14866 945 4461 
16761 2248 6226 1980 8989 2806 16973 1746 6309 
2852 17412 2740 11099 16877 2025 2902 2111 4835 
4534 9922 16305 15126 16969 8057 13430 11669 6675 
8498 865 7013 3290 6177 9971 12653 7048 14409 
2467 351 12267 1611 2045 16347 13139 8423 16798 
4174 14304 11338 6689 10381 5479 704 6616 4732 
13353 13683 7121 17337 550 9510 15399 12842 2461 
4877 7882 4427 7116 146 14725 16139 141 1950 
17717 2699 5380 13019 3947 8406 8005 14920 13787 
4274 17353 11270 16732 8185 7422 13463 17723 1704 
3691 15908 5433 11257 11259 4971 5941 2660 10202 
3071 8753 17838 15582 261 5477 11087 16904 5504 
8320 16448 17049 5612 7215 1049 3885 11256 2179 
3517 3943 4874 6378 1327 16397 18 9476 14332 
11740 3583 12185 11906 491 17682 13473 13991 15873 
14749 16585 9743 17012 9868 16163 3329 15719 1854 
15595 15739 2711 15867 11289 17066 6976 11061 3295 
16436 12904 8783 14826 17355 3142 5333 4688 6364 
11952 13897 11947 9647 3922 16369 10767 2212 4335 
15808 3952 10346 9713 16050 9037 11152 14453 12510 
2783 16088 4370 8438 8450 14054 1122 5441 373 
13107 11958 7704 6977 12207 17577 5372 145 2738 
17438 5294 13429 5843 7805 12756 15642 9021 2626 
3550 16952 13994 15002 3154 5197 2603 7449 13125 
14979 9182 1849 2298 3174 11405 5615 13954 9541 
7318 16802 2240 6543 10371 6264 13474 12192 12981 
13071 4977 17806 474 2892 10209 755 7913 9908 
13741 8696 7639 1523 5887 13545 1897 12098 5773 
1136 2408 14891 17817 7104 3547 7307 6170 603 
13128 10982 15427 3557 15101 13054 9302 13095 7923 
10406 13475 11309 10723 10185 9778 7491 9137 9153 
275 14806 11636 10742 15690 15544 11548 6496 15842 