# vtk DataFile Version 5.1
Generated by LIGGGHTS
ASCII
DATASET POLYDATA
POINTS 17850 float
-0.00293545 -0.028416 0.00255178 0.000710322 -0.0293384 0.00255667 -0.00770919 -0.0271549 0.00285991 
-0.00196027 -0.0273669 0.0021755 -0.0108459 -0.0269809 0.00322599 0.00708974 -0.0272949 0.00258769 
-0.0129145 -0.0263878 0.00293861 0.00843412 -0.0258741 0.00261223 -0.0146795 -0.0253655 0.00370655 
-0.0119181 -0.0259501 0.00337598 -0.00837708 -0.026192 0.00318178 0.00965334 -0.0251564 0.00264478 
0.0147882 -0.0245066 0.00231117 -0.0163774 -0.0241449 0.00352645 0.0115565 -0.0241387 0.00227389 
-0.0173736 -0.0235202 0.0030573 0.0071227 -0.0218374 0.002425 0.0100726 -0.0224408 0.00243764 
0.00356891 -0.0210501 0.00249851 -0.0201416 -0.0213523 0.00310291 -0.0164007 -0.0217808 0.00348516 
-0.00221127 -0.0222178 0.00255584 0.000133132 -0.0209892 0.00242694 0.00112519 -0.0215535 0.00213247 
-0.00896189 -0.0211086 0.00251123 -0.00406148 -0.0198098 0.00246902 -0.0218951 -0.0195203 0.00290448 
-0.0178522 -0.0196154 0.00329635 -0.00695038 -0.0201184 0.00238134 -0.0194653 -0.0175037 0.00230291 
-0.0158943 -0.0186719 0.00317505 -0.00491085 -0.0186192 0.00248907 -0.0110545 -0.0171992 0.00321947 
-0.00791243 -0.0165995 0.00283142 -0.00844459 -0.0183684 0.00249606 -0.016035 -0.0153413 0.00265014 
-0.0110255 -0.0140635 0.00270593 -0.0195484 -0.0142151 0.00228879 -0.0122683 -0.0141989 0.00251516 
-0.0125826 -0.0121845 0.00270329 0.0177711 -0.0108961 0.00125262 -0.00273499 -0.00798572 0.00238102 
-0.00464686 -0.00653182 0.00266944 -0.00163502 -0.00693253 0.00230589 -0.00883502 -0.00630863 0.00289148 
-0.00730837 -0.0048174 0.0030957 0.0104197 -0.00440578 0.00174481 -0.0121935 -0.00451142 0.00220327 
-0.0105711 -0.00428839 0.0024146 -0.00327119 -0.00440558 0.00317071 -0.00842277 -0.00367382 0.00331819 
-0.00568462 -0.00234765 0.0030146 -0.00152407 -0.00299061 0.00318237 -0.000110673 -0.00266182 0.00243459 
0.00463706 -0.00252894 0.00214415 -0.00791575 -0.00167979 0.00316953 -0.00717405 -0.000140022 0.00272622 
-0.00317042 0.000367484 0.00314662 -0.00148318 -0.000761797 0.00326522 -0.00634471 0.000587606 0.00279069 
-0.0019511 0.000760886 0.00270709 -0.0058777 0.00163906 0.00225908 -0.00371152 0.00196953 0.00268757 
0.000253386 0.00499341 0.0016582 -0.0256861 0.00380625 0.0026847 -0.0276575 0.00505335 0.00284777 
-0.0245502 0.00489307 0.00266334 -0.0230682 0.00614035 0.00233954 -0.0220971 0.00591373 0.00285704 
-0.0274712 0.00840656 0.00293107 -0.0263649 0.00768735 0.00284932 -0.0244793 0.00868911 0.00290024 
-0.0232016 0.00736064 0.00295153 -0.0258332 0.0100349 0.00269784 -0.0106649 0.0101673 0.00172248 
-0.0119856 0.0125697 0.00215836 -0.0156971 0.012889 0.00161269 0.00364516 0.0125243 0.00261386 
0.00644021 0.0127231 0.00244167 0.00329893 0.0136401 0.00284756 -0.010146 0.0155523 0.00178413 
0.00148891 0.0143367 0.00269209 0.00406286 0.0144393 0.00281846 0.00555228 0.0136723 0.00244782 
-0.014035 0.0155489 0.00167382 0.000588747 0.0154673 0.00208198 0.00837012 0.0146026 0.00221129 
-0.00356699 0.0157985 0.00221094 -0.0176762 0.0181046 0.00152813 0.00344927 0.0154339 0.00258413 
0.00536835 0.0169174 0.00256554 -0.000298171 0.0178371 0.00261154 -0.016555 0.0187756 0.00203502 
-0.0106252 0.0189296 0.00192284 0.00194079 0.0180996 0.00251352 -0.0158957 0.0199228 0.00229411 
-0.0105033 0.0203373 0.00283394 -0.00342408 0.0212866 0.0022771 -0.0154384 0.0231555 0.00211928 
-0.00783324 0.0230873 0.00246506 -0.0134569 0.0253382 0.00225976 -0.00942573 0.024635 0.001858 
-0.00424714 0.0261386 0.00203832 -0.00385725 -0.0291683 0.00234796 -0.00187294 -0.0285443 0.00197118 
-0.00709317 -0.0285197 0.00292903 -0.00602657 -0.0285842 0.00268017 -0.00978884 -0.0269707 0.00315494 
-0.00635677 -0.0273433 0.00295242 0.000331225 -0.0284248 0.00186563 -0.0118282 -0.0268842 0.00269609 
-0.00509171 -0.0271947 0.00284283 0.0111668 -0.0271048 0.0023273 -0.00556307 -0.0261052 0.00319234 
0.0145405 -0.0255577 0.00230228 -0.0132914 -0.0253125 0.00328598 0.00214131 -0.0252333 0.00245874 
0.0109406 -0.0256485 0.00236697 0.0130552 -0.025666 0.00215329 -0.0141148 -0.0243829 0.00357324 
-0.0101176 -0.0250486 0.0030638 -0.00794062 -0.024694 0.00277851 0.00393335 -0.023749 0.00250087 
0.00560746 -0.0243828 0.00227199 0.00800331 -0.0245952 0.00233843 -0.0130147 -0.0241785 0.00325603 
-0.00280817 -0.0247324 0.00258852 0.0085397 -0.0231736 0.00285401 -0.0179531 -0.0233114 0.00411364 
-0.0157936 -0.02325 0.00279532 -0.00798795 -0.0225031 0.00326426 0.00341085 -0.0221619 0.00220666 
0.0117525 -0.022501 0.00203655 -0.0194032 -0.0220526 0.00385706 -0.018291 -0.0219229 0.00368401 
-0.0149679 -0.0224666 0.00308748 -0.0108778 -0.022056 0.00316417 -0.00947059 -0.0229973 0.00294482 
-0.00364189 -0.0220166 0.00249873 0.000959267 -0.0229712 0.00231333 0.00591157 -0.0216614 0.00195774 
0.00838985 -0.0213153 0.00271519 0.0144247 -0.0212908 0.00195423 -0.0190562 -0.0211153 0.00310599 
-0.0174681 -0.0212532 0.00336126 -0.0149625 -0.0209824 0.00342827 -0.0112475 -0.0206624 0.00291141 
-0.00671621 -0.0216381 0.00246411 -0.00534438 -0.0212065 0.00249054 0.0109622 -0.0209977 0.00198917 
-0.0209683 -0.0205539 0.00302834 -0.0166703 -0.0204446 0.00325742 0.0011103 -0.0204215 0.00264471 
0.00215389 -0.0207341 0.00242555 0.00292307 -0.019837 0.00251682 0.00462847 -0.0208525 0.00226411 
0.00899765 -0.0197139 0.00184782 -0.0214523 -0.0183761 0.00317362 -0.0191008 -0.0198643 0.00356965 
-0.0145177 -0.019849 0.00270167 -0.00527158 -0.0198358 0.00254862 -0.000511261 -0.020193 0.00198822 
0.00557972 -0.0193521 0.0024092 0.00658056 -0.0195787 0.00278342 0.0120489 -0.0192387 0.00183708 
-0.0179626 -0.0183306 0.00327174 -0.0169916 -0.0189935 0.00348717 -0.0025118 -0.0191327 0.00232621 
0.000341314 -0.019432 0.0023697 0.00140775 -0.0193475 0.00256579 0.00232901 -0.0187432 0.00275648 
-0.0233506 -0.0163797 0.00197759 -0.0205016 -0.0178728 0.00283455 -0.01184 -0.0186843 0.00303025 
-0.00611909 -0.0190589 0.00286636 -0.00372195 -0.0187428 0.00237061 0.00254017 -0.0177431 0.0020813 
-0.0171736 -0.0172855 0.00307685 -0.00982586 -0.0173943 0.00233911 0.000969515 -0.0173973 0.00253221 
-0.0182563 -0.0169804 0.00284861 -0.0148412 -0.016046 0.00286135 -0.00590141 -0.0169721 0.00233645 
-0.00312767 -0.0167075 0.00237287 0.00211834 -0.0166337 0.0020907 0.0121539 -0.0171972 0.00158955 
-0.017106 -0.0156412 0.00286365 -0.013256 -0.0170848 0.00270855 -0.0108827 -0.0161629 0.00278021 
-0.00476314 -0.0162296 0.00267446 -0.0190871 -0.0151478 0.0028305 -0.0132257 -0.0157776 0.00280756 
-0.0102409 -0.0149283 0.00284626 -0.00357452 -0.0155639 0.0025197 -0.0024657 -0.0158739 0.00208028 
-0.0183976 -0.0137806 0.00244881 -0.0167469 -0.0144225 0.00242576 -0.00136674 -0.0147829 0.00221989 
-0.0143622 -0.0125684 0.00269564 -0.0120317 -0.0131768 0.0025624 -0.00808872 -0.0127887 0.00213263 
-0.00669359 -0.0130396 0.00260935 -0.0109854 -0.0129055 0.00263015 -0.00223184 -0.012548 0.00232728 
0.0161273 -0.0128026 0.00199296 -0.00613723 -0.0108115 0.00266983 -0.00965063 -0.00890348 0.00304154 
-0.00704219 -0.00806523 0.00297353 -0.00480659 -0.00873646 0.00265934 -0.00814672 -0.007359 0.00259739 
-0.0058834 -0.00835029 0.00285664 -0.00371 -0.00735411 0.00213152 0.000217782 -0.00818816 0.00198114 
0.00502514 -0.00811487 0.00167625 -0.00976528 -0.0068785 0.0023904 -0.00735852 -0.00628902 0.00280408 
0.00587378 -0.00724542 0.00186313 0.00767693 -0.00677879 0.00249876 -0.00569668 -0.00601573 0.00295618 
-0.00363217 -0.00605635 0.00216009 -0.00054785 -0.00731991 0.00237848 -0.0163584 -0.00482237 0.00154762 
-0.00616466 -0.00489493 0.00275029 -0.00207254 -0.00511227 0.00270858 -0.00845935 -0.00477683 0.00258945 
0.00460393 -0.004463 0.00233315 0.01063 -0.00310269 0.00241027 -0.0109269 -0.00318741 0.0026618 
-0.00951676 -0.00272192 0.00308615 -0.00500103 -0.00325397 0.00327875 -0.00242821 -0.00366607 0.00330429 
0.00225348 -0.00390902 0.00257053 0.00375153 -0.00389496 0.0015485 0.00655357 -0.00400502 0.00176581 
-0.0108165 -0.00202652 0.00261738 -0.00663396 -0.00311435 0.00260404 -0.00278555 -0.00255995 0.00317577 
0.00202122 -0.0026921 0.00236923 0.00353086 -0.00254776 0.00208422 -0.00971979 -0.00164669 0.00277101 
-0.00389067 -0.00148792 0.00342235 -0.00116464 -0.00187039 0.00309858 -0.00548046 -0.00119857 0.00288956 
0.0109625 -0.000511577 0.00276886 -0.00820126 0.000387364 0.00216644 -0.00513314 5.92953e-05 0.0028063 
0.00223021 -0.000522278 0.00224429 -0.0210654 0.000134994 0.00222577 -0.0182284 0.000298811 0.00131181 
-0.00938641 -0.000426768 0.00247404 -0.000199181 0.0011021 0.0032237 0.000375199 0.000227061 0.00245285 
0.00683798 -0.000975647 0.00179282 -0.00728591 0.00101255 0.00254157 -0.00259997 0.00172394 0.00301498 
0.00149103 0.000376373 0.00247194 -0.000681312 0.00245286 0.00206726 -0.0235234 0.00197202 0.00240831 
-0.00500613 0.00230181 0.0027713 -0.0017452 0.00250842 0.00277456 0.00197734 0.00235968 0.00266027 
-0.0276321 0.00251943 0.00208125 -0.0226731 0.00279391 0.00221319 -0.00248954 0.00380383 0.00227319 
4.94001e-05 0.00329131 0.0016818 -0.0291005 0.00389176 0.00202469 -0.0199078 0.0046848 0.001954 
-0.00326623 0.00494125 0.00164077 -0.0235788 0.00422931 0.00261085 -0.0223234 0.00480442 0.00262913 
-0.00303076 0.00596409 0.00194995 -0.0287536 0.00503733 0.00304264 -0.0286422 0.00665175 0.00259015 
-0.0266995 0.00445687 0.0025667 -0.0209686 0.00580557 0.00241416 -0.00280324 0.00754344 0.00194908 
-0.0268272 0.00665772 0.00274411 -0.0240552 0.00652937 0.00270941 -0.0253043 0.00678367 0.00331213 
-0.0222053 0.00699175 0.00250587 -0.0134319 0.00869296 0.00205194 -0.0252674 0.00794103 0.00313813 
-0.000113252 0.00903715 0.00178666 -0.0277819 0.00958816 0.00308494 -0.0265372 0.00891679 0.00257147 
0.00353425 0.00812429 0.00177177 -0.0270335 0.0107142 0.00307474 -0.0239155 0.0117719 0.00226261 
-0.0231275 0.0107166 0.00238377 -0.00792054 0.0108222 0.0013197 -0.0259883 0.0110702 0.00314452 
-0.00895485 0.0107719 0.00187959 0.00205906 0.0112573 0.00193469 0.00347512 0.0104997 0.00235664 
[...]
POINT_DATA 17850
FIELD FieldData 6
id 1 17850 int
1552 666 12228 7795 5625 5008 4734 1132 2954 
3161 11258 2234 12026 7357 6357 16885 11152 8762 
11402 16573 13990 8028 10173 7853 17799 6869 12618 
15930 10511 16597 16923 13353 10788 5340 11825 14957 
7470 14717 991 4596 17077 11264 15023 5368 8492 
7756 17804 9200 12866 12476 16291 6740 7363 16753 
14473 7170 5090 3118 11253 16175 7596 6245 4007 
16529 8792 4360 2476 6111 4565 10725 5012 2294 
7855 3159 16206 8264 855 10060 5806 5831 1996 
14708 2896 6441 12494 12103 10789 5828 5271 10326 
9478 11560 6335 17724 11780 1336 12914 10585 15869 
1166 10900 6290 2697 6896 5407 17357 510 12759 
322 12765 11553 3150 7400 12698 6301 627 10886 
3733 11070 8443 17378 2418 2659 9490 2545 8808 
5534 7660 8794 12582 9876 9987 2575 16979 13161 
14057 9729 1022 9236 11031 6361 8158 1938 15824 
12633 15602 12332 5274 4278 4781 2946 8580 6130 
4038 8072 9891 11665 5838 1800 3869 13077 17080 
10660 4633 8755 8055 11476 2015 3143 6778 1556 
17735 13867 1457 3099 13772 13485 8536 9820 11446 
14529 15397 10454 8134 14940 16379 16622 17805 2202 
12681 13997 7189 12755 12226 12001 14372 1489 6530 
15438 10888 12478 7912 10389 5006 16409 9467 7482 
2062 8937 7347 8344 12777 8047 4180 6584 13709 
3840 390 14398 9216 3147 17603 4986 5018 14862 
14118 818 9867 7564 6054 5713 16551 6020 3374 
13166 2738 7309 3146 6291 11211 6080 3529 14757 
1737 14937 8511 11078 16264 16578 3402 1152 14418 
10419 12340 9338 15222 17075 2415 7029 13681 12677 
5595 15431 13359 17172 11464 15067 470 7626 12908 
4632 15650 12763 14691 113 10948 952 14719 12922 
9977 14213 5178 5873 11325 6427 12643 5270 10932 
13476 4290 10693 3078 12108 3020 13355 15209 2081 
14756 16494 15685 14070 7637 5471 2593 10912 14227 
15045 9263 13977 7726 16692 9265 9019 2452 6814 
14906 17766 5620 15991 7800 13592 8912 3598 11479 
17163 14410 12730 14466 15984 10605 3434 7976 12324 
4983 2194 2307 14613 13662 2325 14802 3365 2727 
15954 10566 2400 2271 14682 2012 12527 11243 17502 
6913 1334 11347 1300 2352 7325 11609 9773 4591 
11358 12731 9763 11126 10024 5500 17429 8466 1821 
3624 1078 4673 11306 8594 782 829 5232 5986 
511 697 3866 3375 3306 1008 5643 5808 1843 
10677 706 4630 17310 7629 12147 3406 11576 14611 
10815 5707 559 10417 6292 10020 17834 2008 13643 
4705 6180 2851 5236 14854 3363 10251 1164 6762 
17226 11123 15430 16871 351 1438 1677 2786 3391 
12051 5474 11374 7733 13720 14000 6747 15852 12559 
9740 2005 2163 6967 14102 13180 17049 12328 8902 
2623 13949 5947 6939 11652 10614 9767 6365 12461 
7146 1970 9485 8400 828 7554 1352 14313 13488 
1277 8606 12940 8941 11006 15359 13459 9258 11411 
761 4672 11672 5224 14232 3810 13792 9595 10903 
5980 12490 15576 9333 1923 16580 10826 6741 3047 
10308 15661 4445 873 9887 5695 17240 16076 9224 
17490 8616 9615 7353 8377 9283 15622 17481 17536 
13895 13270 16087 8651 13210 16952 10570 1355 13463 
2652 15039 1877 7796 11286 11324 2441 621 5574 
8706 7866 3514 550 6860 14868 4792 11671 6714 
15980 1574 12035 13742 11589 7932 8853 9003 15556 
12902 6587 1830 17323 12821 595 2317 8777 6317 
5692 2133 4068 8641 4873 15797 16513 10877 504 
9401 699 4811 14928 16599 7485 2760 1872 7907 
9766 10160 7511 6829 17210 4449 10507 9538 2554 
12137 6174 15512 8797 16484 8932 1778 8676 17392 
8772 1940 836 13199 11861 252 275 7536 11315 
11480 4198 9822 6070 10798 3738 9688 4076 2620 
6135 16647 16224 4190 6851 13092 2540 15307 158 
9907 6573 2501 2292 13085 7574 11984 2293 5799 
1888 14752 15658 1303 3447 9051 10673 13113 14848 
12040 14247 13519 1475 481 11093 11586 4563 5555 
9370 690 10553 2059 16845 9578 16382 4077 104 
17321 8446 10864 3178 1931 11695 10930 9139 2638 
16741 15636 11732 16616 16195 15429 17139 1854 10289 
5646 15915 16213 13653 983 6572 17558 5702 3352 
4880 12780 16566 3640 12899 14302 2987 10212 5800 
13626 14479 3903 11024 16532 16481 13557 10328 7340 
2922 14610 2227 10971 5615 3361 13322 8161 10752 
12957 10561 10753 6730 6712 10073 16785 15784 15744 
14154 15938 7032 8434 17263 13549 528 6938 10709 
11797 14387 17673 16508 15055 4621 13037 9416 7638 
7636 17501 5804 3277 4970 16718 17776 373 15529 
2470 15655 7455 16724 15327 3631 10662 7326 12579 
12603 11757 14244 8524 3469 14763 15042 14455 2909 
6091 16810 14953 4009 4969 15579 15010 12473 225 
13546 2829 1795 7154 13167 7902 3376 7729 4010 
9457 6494 6072 100 14601 4326 12889 16948 9009 
7896 11038 4941 7043 4017 12105 16698 9438 9378 
13362 14470 8739 1249 17649 12492 3928 10465 8359 
13029 13277 13063 16811 16464 15975 7785 12086 1934 
15634 10372 13841 13698 16630 11977 1241 10094 1239 
14769 677 15379 10635 8926 16503 14786 8259 17453 
14296 781 15237 16452 15278 17285 15893 16080 6454 
8626 14939 13502 3017 5960 55 11368 12782 12369 
14294 7327 12920 10687 5790 1037 7722 16261 13372 
14132 5543 11602 6445 7067 12082 1984 3324 16 
7207 5155 10362 8884 2959 15689 289 12647 17407 
12775 8545 14260 3075 10972 4350 16709 9161 12865 
6569 1645 4555 5815 12552 8951 213 4855 11384 
9107 5338 17729 14421 5496 6905 9262 2496 15328 
3507 4844 3473 14139 15244 4179 130 17335 8863 
4236 4837 11887 1949 9165 11383 6760 4054 4894 
2797 1565 5484 17196 15460 7283 9718 3907 6298 
17654 6899 711 11257 7527 1098 2199 3471 1483 
2060 10425 10072 14577 1881 8835 10739 17581 3609 
6021 8870 16271 6249 5939 1307 7708 3311 17154 
1987 8196 2956 3484 4209 16431 10302 1532 6315 
12127 6919 11250 939 3744 921 15578 8370 11772 
12555 8014 1635 7683 17432 16602 15033 4614 5092 
3137 8931 12713 8973 7177 14884 8417 15754 3579 
8813 6815 11717 17647 9076 5235 8280 8512 7991 
14616 15199 12844 2286 7441 11592 15878 2113 13516 
8886 8356 4048 5364 17317 8721 823 7122 14661 
12622 7696 12832 8950 16439 4470 15007 16081 6971 
7822 9187 7862 13973 13710 15189 7299 2891 1272 
162 17565 16801 2690 4208 6667 5978 1435 12695 
13273 15502 10572 16330 13673 9652 14357 5503 14852 
4904 6018 6323 316 14487 7210 2397 14071 3024 
12031 12846 5170 11127 17794 11505 1194 11301 14625 
1739 10867 15948 14550 13994 2327 13022 3544 594 
9443 7013 7265 1180 10645 777 10718 1076 5578 
5276 13470 12495 12153 10549 11371 10984 12033 8967 
17682 3796 10670 10030 10714 5519 12624 14436 3048 
8101 10401 2656 6995 174 1478 17778 8445 9151 
17148 13924 725 16259 12047 8584 1409 8094 8887 
9228 8710 1985 7893 2703 14447 16041 4752 11905 
8615 17370 7842 5941 14881 10271 1217 15590 12528 
15907 7046 12851 11904 3752 6341 12378 11413 1732 
13695 12828 1895 14686 10211 15584 11154 4318 17040 
2221 5768 3964 10522 7255 17267 1025 9841 6188 
7606 13650 16400 5529 4458 7978 8372 16442 16448 
1220 12190 2205 13868 8009 3415 16837 17224 14836 
17723 6264 4629 10567 11749 4785 16474 13743 8776 
12566 7887 14243 11847 5295 13267 13683 14035 9385 
5883 16211 11631 9913 13350 13418 16019 9323 15770 
10708 17349 6396 8779 577 6926 4293 9384 12014 
1461 7765 17608 8130 8860 16301 1203 10795 9703 
12242 1494 5138 15686 4477 9122 12964 11718 10079 
15844 12284 7513 11856 290 12037 6164 630 15247 
12056 13266 13402 11122 8318 5464 14778 14970 13178 
3108 5317 11364 7139 9303 1575 5794 3106 10 
3304 15589 2810 7701 17237 945 16389 7580 9041 
2404 4154 7496 17796 14017 15225 14681 718 9493 
11953 3009 11975 9063 1742 11330 11654 3643 16377 
14149 14900 16035 10583 12270 4098 2119 7444 9944 
5540 16649 13966 2212 7377 8913 4537 11703 5833 
6806 2171 17159 12368 3392 4342 15722 11588 10695 
16117 17223 14234 13937 17582 1195 11612 13822 6405 
2337 16953 1539 9029 10525 12761 12122 16581 1133 
13 15466 12188 5440 3472 2558 14938 14485 11184 
4572 5042 8573 8139 3033 12321 721 7790 3778 
6875 6979 4842 17678 14655 14837 11972 6832 133 
1456 4847 6723 9154 14053 13282 2433 15876 259 
1235 13847 10620 3276 3993 2440 582 9123 14147 
8217 17337 12516 2310 11758 1353 8146 12157 9910 
5830 1612 10395 4463 15843 15672 14590 16063 5182 
11160 8326 7242 922 8182 10148 2584 13913 13767 
16430 10973 14775 8800 13889 2298 9036 12140 1967 
5495 7186 10239 12358 14833 15272 17105 2336 14507 
201 16617 9188 3531 3298 10638 19 17812 15566 
15850 2819 1036 15164 14733 13796 12119 1465 14998 
14545 15001 10746 12367 7313 11349 15923 12424 458 
1583 15687 5220 10833 9335 13716 15677 4178 9267 
6868 11135 274 16930 17660 1349 7373 1059 12470 
6855 2160 5789 17437 17347 3679 16988 531 1085 
12997 12288 278 13670 12314 16147 5241 6697 10844 
2435 5281 7324 8469 7305 17123 8481 17150 16093 
6369 17650 7929 11150 3650 7579 13209 3542 8560 
14311 13207 4973 4607 1320 16358 12689 9702 14343 
4814 17790 15453 6862 15138 10017 14249 14665 8249 
14179 12994 16173 12003 3790 13401 14874 5263 9551 
14919 6787 16423 13384 9509 16905 7167 3135 11162 
14540 7128 12644 2411 17070 16039 12884 5334 11140 
17816 9222 15719 4128 13298 11532 6947 14782 15614 
7551 15833 4132 6653 11498 17005 3037 16344 15179 
11039 10774 9322 11993 1904 2080 4486 4634 7707 
5662 11056 15973 17697 5991 11969 2913 9953 14945 
13992 13627 9998 13567 10730 14644 3234 9488 13717 
10350 8894 2365 5524 17454 12664 11134 14646 12354 
12930 23 8596 5654 12305 12143 15082 2288 4561 
4364 16908 13016 17506 16517 10811 4531 305 8337 
7571 12306 7905 15769 13021 15380 16528 7426 14978 
1668 2291 14944 2217 12813 17265 4841 10337 16378 
10166 12135 10484 3427 14528 14997 4590 10578 11608 
17416 17590 15763 12751 16971 3864 7769 2581 2770 
8103 9127 7538 9673 10384 58 11886 2525 2231 
953 2491 14773 6347 14936 419 12249 12650 7287 
14533 10330 6870 15950 6051 7412 9082 16228 2823 
567 4865 10748 15387 4143 7972 5560 8981 5867 
10274 7720 3697 12294 4019 10451 402 1628 12325 
13236 6634 2737 9593 14401 189 1609 149 8235 
2122 2801 12715 3132 12163 9159 7249 3060 17763 
1632 7641 14151 8562 1844 12296 8696 2172 5763 
8907 3481 12627 8350 5885 5325 7760 13914 9622 
15859 7835 1035 4442 13803 6067 2768 14170 5198 
3676 8504 4072 5930 13074 10565 10929 6891 6736 
9243 8482 4839 6595 15452 2890 14509 4637 6495 
5305 8748 5200 10233 3023 2023 5353 5234 386 
4047 5832 5202 7845 5240 11228 530 3196 11137 
2550 287 4552 4391 14715 6900 7428 4000 16459 
7512 7498 10457 1485 1354 3588 810 4564 5395 
184 11982 3453 12876 524 11187 10216 10879 2378 
12005 13617 2027 15846 1642 13563 1543 182 10361 
3898 2300 1498 2123 11542 107 8212 2265 2388 
2892 4160 10866 5031 8213 16790 9475 11628 558 
12107 16525 16950 4234 5331 10177 2153 5683 110 
5447 15104 8172 11793 5842 9708 10947 13856 7678 
9560 5423 7778 13340 14496 14012 13051 16058 5703 
11218 13580 7980 16731 7582 625 15395 16134 7751 
3914 652 5052 6745 4853 3978 1623 12814 11556 
16469 9173 6566 13368 5903 16279 3040 16220 1140 
9073 5508 1056 6251 3457 1274 12955 14312 1805 
7459 5070 17092 6804 7132 14566 14650 6589 16814 
9232 4604 8026 12202 8765 11716 13263 17122 10022 
3428 3151 7095 9658 3597 4816 10376 14134 16468 
4559 1728 17104 11899 11022 11812 11239 10790 17423 
4937 440 9661 742 6840 7253 3551 7014 11822 
11249 15132 16940 1091 8537 9233 8490 16307 1316 
6521 8558 2169 14100 14877 16278 2618 13777 12245 
17745 11188 10951 11915 13386 14789 7197 14860 6519 
10574 13661 11518 13119 7121 5036 6553 14414 2503 
6269 13844 1804 4300 121 13871 14427 17318 10319 
6640 8206 6442 12327 605 2888 3364 2109 15573 
5039 8039 17701 13931 8600 6224 15008 10669 13139 
5645 11423 15457 7998 11976 2500 7868 1147 1119 
5412 9146 11397 5855 13103 11008 14799 12945 7314 
13419 7403 5776 15953 9274 12545 10658 13489 2316 
3844 15060 7534 8878 16193 12543 10697 16447 2915 
869 10006 17828 5301 15720 3463 8413 3590 2651 
6437 2065 16504 17611 11945 13172 16574 2749 10435 
12556 7789 9607 2968 12823 17088 306 14106 15424 
11115 5037 9415 2713 16642 16273 12942 13326 1563 
7781 937 12204 5322 9314 9502 10534 17396 12825 
3308 17016 17507 10305 13802 9426 6674 8714 6244 
13852 4730 9603 2497 2824 16397 12923 16561 12023 
9376 7522 16558 12867 11936 533 7203 2063 3786 
16765 9307 7908 1462 6975 17802 10933 10423 4754 
14022 16381 15766 2657 15470 14510 3743 10539 5446 
8658 362 2159 11842 14902 6981 10763 9695 15630 
6555 7975 5564 11778 14129 10463 4588 16530 14366 
15000 1112 418 4025 5677 3084 16972 16436 17281 
10124 10398 9064 12399 10040 13974 10559 14504 12390 
16346 10487 7462 2948 14614 5801 1796 17754 10418 
12909 17693 12386 9483 11725 17615 12124 5086 8496 
15727 16740 13118 15987 15337 14043 416 12282 12244 
8546 5003 7879 6289 15061 7493 45 8795 17389 
9480 9735 16170 7491 16676 12239 8402 14464 8829 
1879 2784 10889 11196 12341 2693 14819 4422 9880 
7869 16992 3458 11380 16818 5517 10114 10805 5151 
11903 13928 6320 16249 15022 14397 7703 12855 13985 
12946 537 14764 9142 15433 3952 16317 6539 16744 
10014 8934 17583 12182 1240 6588 5150 2157 15054 
10257 13094 10876 14299 14186 5925 14146 10497 13684 
6153 3101 8097 5415 6682 9168 15555 17806 10612 
5949 2460 11011 17170 3940 2992 460 7880 15628 
4972 11504 13574 9281 7319 6786 6238 4475 10721 
13510 2275 2355 6266 2775 10290 12293 14254 9939 
12953 14544 11863 10341 17401 6016 6705 2587 15615 
14986 10518 11233 10090 1990 4716 7891 5358 11577 
13854 10304 16813 6609 8398 4041 11520 17785 16827 
10066 17338 989 7173 12802 10760 161 15459 6162 
17192 6285 12971 14748 13014 15572 13038 16403 9784 
16160 5344 8107 4407 6004 2719 472 1898 5149 
4584 16098 6772 5778 12269 15721 5454 8872 14122 
14891 11890 9388 16587 8532 9894 14809 5901 4089 
14449 4087 3072 13220 6207 4587 1067 16182 13881 
17269 13441 17510 4888 1143 2370 5342 5493 14855 
3780 308 10510 17616 15312 11105 17228 1080 4739 
17568 15229 17734 17386 3965 7797 1296 14269 14332 
6531 14241 5259 14656 10609 655 10596 12985 17744 
2266 9278 4742 4611 3476 8450 14999 8890 4195 
11880 10208 16822 11419 17705 13861 15197 14076 9892 
4933 9409 6935 16247 16199 4266 16281 14095 14973 
6046 16440 12057 16832 12272 13952 12177 12028 9565 
13422 11618 4642 2673 1527 11501 910 17449 12576 
809 14500 14458 8857 16507 6655 6892 14233 15168 
14443 2299 8021 3128 12585 822 17619 3578 17097 
7525 13934 7155 16538 15174 10755 12106 15912 5984 
3889 12142 6407 6547 3956 15407 16197 16297 10842 
12406 11365 8113 12840 374 9071 2945 17844 15287 
1123 792 15917 12484 16667 1517 3307 2207 6229 
3498 6803 15524 14395 3727 15240 3066 2319 9535 
14248 16607 16467 12912 17514 2085 14369 16350 7578 
7008 132 2604 7078 7361 6791 1181 7741 7232 
4819 8383 11697 15604 1519 13073 7192 8087 6237 
9576 3827 11587 1644 8070 8682 13347 9163 10519 
2964 11881 11312 5404 1794 11838 9061 4023 10747 
15403 15275 2792 14521 17769 5410 5010 13360 13232 
2748 1652 11894 1066 4483 10963 14352 9955 8993 
16935 9355 2601 13496 9497 13237 11835 16353 5926 
12316 9373 5346 14385 4762 16927 16705 9507 4978 
11985 12500 11739 16372 13348 10459 448 4344 17419 
4692 16983 4443 10657 17727 8329 12370 3373 9022 
2817 14115 800 2870 11607 13932 1825 11557 12058 
6340 12241 3184 9255 4100 1882 4426 14290 13704 
10787 16669 7055 859 17749 17580 3759 2763 7041 
7643 1875 17633 8322 7101 10312 16928 330 4774 
4114 13688 11149 7517 3988 186 17326 13929 905 
14941 12405 15755 7559 15188 16437 14010 15886 8081 
8705 3345 3167 13170 8042 17589 12839 11192 3483 
14459 13429 1156 11546 4902 8642 7381 12890 2106 
17789 1802 17607 14454 12948 9517 15889 622 15383 
7732 14205 2995 3158 4787 4399 4014 1323 12475 
16049 14135 15801 12746 4468 8867 16660 15264 10575 
15366 17026 10278 4294 14524 11538 16238 5273 3141 
9234 15346 410 15079 4396 10323 9028 13300 5323 
1894 14465 9065 13439 10785 16190 9711 5943 10527 
3377 17015 10704 17319 8380 3701 5076 6066 11437 
1013 12684 15078 7510 7264 4269 7687 882 2586 
8650 16085 3095 11309 10770 1150 16296 14520 16756 
2090 1146 14921 8050 1972 5245 4349 9177 16196 
15814 7125 1029 8968 4264 13784 8457 1671 6009 
8106 1656 14041 11710 14917 16047 5133 13522 16356 
5300 16107 7783 8041 14692 574 5135 13534 15196 
3666 417 12062 2128 14111 7006 16299 10994 9147 
1569 10288 10366 4733 12641 610 2434 7244 11713 
5606 10491 157 7475 17472 2257 12745 14552 2066 
9798 10181 12762 15900 6359 2629 1332 3199 5684 
14359 14585 12593 3165 3267 15135 2661 15384 11687 
8459 15254 7994 636 15157 16127 13187 8288 10116 
5755 16786 266 8741 12785 10115 766 12882 6828 
12024 17136 2933 13198 3454 5123 5297 13055 4651 
1784 11054 6948 1562 2814 4473 4492 12092 638 
6631 1585 10624 9905 17782 13390 7329 15776 7331 
4217 994 3296 3541 4192 6083 864 6552 5920 
6141 4566 776 6881 5764 8750 2969 8924 12773 
8491 1447 5924 3314 4862 8631 17307 7114 5566 
6969 8449 4151 4910 9950 5094 10600 1329 12252 
2058 1639 3566 1951 4691 7103 16125 11783 14288 
2251 3414 8388 15936 2773 2863 5746 31 10317 
852 16234 5505 4732 13816 7705 1294 2965 7461 
7187 7715 3876 9482 6231 12219 376 8698 4660 
8484 1666 4758 8115 1502 7828 3836 2431 8925 
8494 12551 14869 9620 3648 6084 508 9223 9610 
12217 10245 8904 12518 8927 4168 17060 1187 12022 
6749 15583 12004 10499 13033 623 923 12065 14890 
8541 4404 7004 6998 6272 450 459 2098 3222 
12854 3931 4786 473 5074 6149 12264 3424 552 
8488 15691 3691 2505 10622 13324 5048 11372 15302 
16198 13240 8790 2917 17250 14133 7460 7216 2445 
8585 14745 7829 14153 16856 15679 9552 4568 211 
14863 12595 10095 7269 7873 2791 10532 14461 2811 
14403 1890 9597 10122 10860 12250 6106 6662 16396 
6366 969 11529 7904 1828 13005 7180 5479 8921 
2490 7082 14525 1346 8521 7759 2168 8200 13775 
17291 10446 6466 5891 9681 2261 15110 7181 7429 
6026 10456 12168 14635 9924 7239 7034 17541 7198 
12939 14588 7612 1558 16545 7989 11130 17360 165 
3693 1699 17683 7885 3034 11455 518 5239 12561 
7877 466 10586 1392 1891 14252 14990 8060 12045 
17577 15083 8715 6261 8342 16294 17826 9567 7623 
16112 11623 1397 17129 1909 17274 13487 17625 12709 
7450 5127 6424 16057 1413 4273 10954 10828 17640 
8142 8518 15932 10834 8064 339 6278 8969 15451 
2107 7246 8882 1380 8105 5604 10001 3367 3911 
9339 4430 15616 2966 12530 10424 15908 9771 13054 
10016 16266 16289 15521 11645 6843 13036 10256 13640 
10464 17229 16843 14368 14683 4363 14849 8966 9092 
15321 4886 17206 3919 14942 16872 3768 11973 10802 
12574 9754 15442 6522 11561 3724 14920 14101 7446 
17057 13702 10610 3226 12856 14317 7165 13371 7692 
3728 7535 15902 13269 16391 14373 2235 16726 4327 
6517 13458 14150 2707 8231 11299 12521 4976 6557 
5318 9655 16627 15100 9344 9273 14556 10195 8717 
9761 5864 8222 6669 15811 7520 14214 17182 9353 
7735 1026 300 13747 7586 12590 11647 7533 13182 
5136 16768 15178 14194 6053 17152 13175 10767 8246 
14912 12216 13188 5853 15713 11297 16146 15674 13503 
12411 11930 2044 4631 3006 6523 7028 6205 7872 
7955 6904 17760 1223 15296 12660 17405 7477 13010 
9722 8598 6155 13291 1459 4219 12771 10882 6423 
1993 9390 49 15088 11388 15432 10445 13076 13846 
4539 6277 9350 1510 3082 11762 5128 15029 122 
17447 15224 9810 10916 7124 16901 9897 7289 11948 
7045 1204 9687 5226 1816 11795 3255 9462 670 
6105 234 14433 6810 15043 11566 16060 3018 9954 
11527 15455 1953 16265 4519 5183 10359 1707 4444 
5795 13100 9089 8044 13473 5349 9133 6136 9317 
6542 16079 12418 10264 10209 8868 3523 4725 14188 
12179 13020 1763 15565 6750 11408 8579 9038 7011 
13499 15200 11260 8177 17593 13244 17134 2517 15788 
11635 6797 886 12154 7174 10861 13604 12097 8644 
7466 11030 9032 8961 7168 2619 8503 12935 1289 
1213 2134 4895 17725 1315 8428 6685 12453 8080 
9206 883 12704 8979 16704 14203 6300 6094 11564 
5403 1428 2488 15595 1915 2335 1817 16233 14633 
7398 12136 546 5406 4770 9026 1545 8381 340 
15586 2154 106 7332 7169 4456 3966 15377 4212 
789 15856 17106 16493 8840 14989 5585 9901 14388 
10096 99 6965 14654 4225 3558 8783 15322 12833 
5733 17665 3896 10213 8685 15875 5167 2839 1244 
6150 11817 8436 17566 13591 8987 9570 14810 1393 
7106 9125 7966 7476 7480 15195 17700 10754 9634 
16465 1833 10118 5475 7995 5099 16978 11091 13274 
1383 11626 7270 12885 14794 4126 6732 2881 2465 
3785 7666 15888 8613 13798 11933 1376 1614 12862 
13556 17221 2246 3865 1238 3446 6651 2077 16126 
16974 9156 16693 7659 8591 4122 17791 2340 7502 
15641 5610 16776 17711 13505 11294 8909 6057 4636 
17110 642 8175 12493 12743 3900 4979 8023 1090 
3225 7119 10977 14087 12125 4279 11876 8077 17264 