# vtk DataFile Version 5.1
Generated by LIGGGHTS
ASCII
DATASET POLYDATA
POINTS 17850 float
0.00725305 -0.0208619 1.77613e-05 -0.000542802 -0.0292653 0.000291073 0.00384515 -0.0289849 0.000857949 
0.000888378 -0.028663 0.000450276 0.00282358 -0.027804 0.000960186 -0.00160238 -0.0286396 0.000331933 
0.00568975 -0.0281391 0.00230908 0.000100482 -0.0272322 0.00122273 0.00292987 -0.0264851 0.00108156 
-0.0014461 -0.0272816 0.00141571 0.00163168 -0.0268268 0.00182376 0.00047847 -0.0260579 0.00156858 
0.00287149 -0.0256107 0.00188841 0.00498402 -0.0263935 0.00156961 -0.00187562 -0.0256614 0.000452175 
0.00227427 -0.0250235 0.00115782 0.00372675 -0.0244974 0.000826618 0.0102113 -0.0245684 0.000380428 
-0.00386747 -0.0259672 0.00141106 -0.00110841 -0.0248244 0.000717676 0.000340699 -0.024938 0.00104668 
0.0048836 -0.0238949 0.00142773 0.00628991 -0.024157 0.00161095 -0.00551099 -0.0240753 0.00102691 
-0.00306739 -0.0239326 0.000314372 0.000173408 -0.0237531 0.00123648 0.00173101 -0.0238712 0.0012378 
0.00561767 -0.0238934 -3.38066e-05 0.0173994 -0.0221618 0.000762476 -0.00439713 -0.0242052 0.000611541 
-0.00152036 -0.0232888 0.000822042 0.00100069 -0.0228661 0.00144117 0.00587432 -0.0229164 0.00163322 
-0.00665974 -0.0219651 0.00107304 -0.00461752 -0.0223969 0.00160286 -0.00277219 -0.021648 0.0014004 
0.00261953 -0.0235507 0.000641098 0.0155674 -0.0220932 0.00019744 -0.00394115 -0.0207126 0.00188372 
7.6844e-05 -0.0217836 0.0009339 0.00120637 -0.0216669 0.00174028 0.0028521 -0.0226356 0.00012765 
0.00494087 -0.0222303 0.00105073 0.00611555 -0.0225253 0.000262189 -0.0175943 -0.0203483 0.00137884 
-0.0107257 -0.0200097 0.00125367 -0.00819382 -0.0199108 0.00100687 -0.00770433 -0.0209332 0.0001682 
-0.000461576 -0.0205788 0.00194239 0.00167911 -0.0206431 0.00195849 0.00290158 -0.0201659 0.00156023 
0.00464381 -0.0217213 6.9749e-05 0.00876345 -0.0217747 0.00323678 0.016095 -0.0200437 -7.13039e-06 
0.0190141 -0.0204528 0.000692569 -0.0185794 -0.020425 0.0019303 -0.0164767 -0.0191068 0.00240668 
-0.00716411 -0.0202899 0.00154547 -0.00541585 -0.0195401 0.00143017 -0.00265198 -0.0204935 0.00154718 
0.00685957 -0.0199198 0.000499123 -0.0223601 -0.0189782 0.000107789 -0.00472431 -0.0186554 0.00152563 
-0.0029832 -0.0186845 0.00219429 -0.000876019 -0.0193825 0.00278895 0.0012037 -0.0196742 0.00210952 
0.00298529 -0.0191286 0.00121726 0.00879985 -0.0203364 0.00140163 0.0181295 -0.0195603 0.000167307 
-0.00635332 -0.016995 0.00104811 -0.00588864 -0.0183096 0.00134305 -0.00494762 -0.0180259 0.00247877 
0.000579034 -0.0178303 0.00200904 0.00184418 -0.0179829 0.00198337 0.00307176 -0.0186042 0.00230667 
0.00573049 -0.019375 0.00100284 0.00674268 -0.0188223 0.000343393 0.010753 -0.0185303 0.00284723 
0.0191855 -0.0174918 0.00079587 0.0228215 -0.0183111 0.00106998 -0.0231774 -0.0179426 0.00150989 
-0.0217264 -0.0180509 0.000712373 -0.0205107 -0.0185887 0.00130714 -0.0124912 -0.0171186 0.000314747 
-0.0102966 -0.0185014 0.00101444 -0.00571602 -0.0170959 0.0020344 -0.00435208 -0.0166966 0.00238495 
-0.00297215 -0.0172321 0.00161212 -0.00137595 -0.0178916 0.00219785 0.00272805 -0.0173895 0.0023394 
0.0100752 -0.0186951 0.00169059 0.0143036 -0.0189329 0.000555835 0.0172001 -0.0182092 0.00103116 
-0.0198059 -0.0170305 0.00193035 -0.0118031 -0.0169596 0.001199 -0.00858594 -0.0177688 0.000922371 
-0.00740671 -0.0164397 0.00144088 0.00130583 -0.0170307 0.0019642 0.00370521 -0.016694 0.00169494 
0.00528161 -0.0173088 0.00167141 0.00633738 -0.0177593 0.00226301 0.0160696 -0.0176474 7.13081e-05 
0.01893 -0.0163893 0.00135999 0.0218784 -0.0172765 0.00055662 0.0234484 -0.0166109 -4.51667e-05 
-0.0243484 -0.0165505 0.00235822 -0.0211076 -0.0170676 0.00150147 -0.0163331 -0.0162051 0.000742536 
-0.0131077 -0.0160563 0.00104152 -0.00996705 -0.0164544 0.00175757 -0.00856996 -0.0164514 0.00141221 
-0.00640211 -0.0155462 0.00228642 -0.00522966 -0.015928 0.00190203 -0.00372909 -0.0160124 0.00163709 
-0.00129558 -0.0162396 0.00207641 -0.000357591 -0.0156422 0.00193802 0.000387971 -0.0161396 0.00275949 
0.00301335 -0.0163881 0.000849619 0.00724944 -0.0162725 0.00156356 0.00899385 -0.0169267 0.00196744 
0.0118802 -0.0171095 0.00071361 0.013311 -0.0158033 0.00018273 0.0155349 -0.0156077 0.000557868 
0.0169397 -0.0167877 0.000677316 0.0203411 -0.0163488 0.00121612 0.0243953 -0.0154643 0.000227794 
-0.023928 -0.0154097 0.00231005 -0.0205907 -0.0160599 0.00135981 -0.0191773 -0.01584 0.00125665 
-0.0160129 -0.0147339 0.00112937 -0.0107432 -0.0144896 0.000968115 -0.00760286 -0.0152405 0.00166441 
-0.00605444 -0.0144255 0.00202957 -0.00414869 -0.0143234 0.00147591 -0.00292781 -0.0146978 0.00185744 
-0.00154371 -0.0142671 0.00176573 0.00404184 -0.0149632 0.00138788 0.00521239 -0.0144851 0.00155478 
0.017944 -0.0158931 0.000900228 0.021328 -0.0158431 0.00105763 0.022508 -0.0162199 0.00106566 
0.0250747 -0.0149542 0.00151102 -0.0257345 -0.0133887 0.00148112 -0.022865 -0.0148529 0.0025916 
-0.0210008 -0.0143681 0.00063662 -0.0191062 -0.0145458 0.00158687 -0.0136929 -0.0147609 0.00137667 
-0.00665622 -0.0139278 0.000777043 -0.00467171 -0.0135527 0.00209248 -0.000210258 -0.014406 0.00188725 
0.000995354 -0.0142468 0.00168683 0.00286175 -0.0144914 0.00197434 0.00790328 -0.0145482 0.0010641 
0.0111034 -0.0143975 0.0010614 0.0124007 -0.0153452 0.000847209 0.0151899 -0.0160399 0.00170953 
0.0231147 -0.0143269 0.00026208 0.0237114 -0.0147581 0.00108856 -0.0245756 -0.0129737 0.00237266 
-0.0243139 -0.0143069 0.00202686 -0.0228173 -0.0138698 0.00207609 -0.0179995 -0.0142684 0.000143373 
-0.0159792 -0.0136348 0.000469914 -0.0106376 -0.0134956 0.00140388 -0.00814333 -0.0139306 0.00157617 
-0.00376798 -0.013193 0.0012055 -0.00227144 -0.0132959 0.00193292 0.000117202 -0.0126422 0.00077049 
0.00311223 -0.0135319 0.00156443 0.00437957 -0.0136577 0.00143878 0.00592504 -0.0141947 0.000639663 
0.00677763 -0.0129254 0.000809593 0.0090298 -0.0138913 0.00137635 0.0138281 -0.0142409 1.39217e-05 
0.0148807 -0.0149946 0.00166024 0.0172304 -0.0149511 0.00068796 0.0190854 -0.0146074 0.00149564 
0.0201302 -0.0152007 0.000814116 0.0247933 -0.0137863 0.00111837 0.0263431 -0.0128994 0.00193811 
-0.0260457 -0.0128363 0.00341333 -0.0209991 -0.0128543 0.00210936 -0.0186405 -0.0136192 0.00123503 
-0.0171126 -0.0130446 0.000882193 -0.00932537 -0.0130393 0.00115068 -0.00530536 -0.0118546 0.000745815 
-0.00481741 -0.0127253 0.00131948 -0.00111818 -0.0124652 0.00204042 0.00189511 -0.0134762 0.00120162 
0.0041612 -0.0120843 0.00119999 0.00543649 -0.0127201 0.000458703 0.0089583 -0.0132556 0.000320146 
0.0142781 -0.0140148 0.00110452 0.0154713 -0.0132716 0.00184264 0.0178575 -0.0123636 0.000679342 
0.0192499 -0.0136715 -6.06657e-06 0.020891 -0.0131736 0.00144951 0.022389 -0.0132063 0.00182028 
0.023529 -0.0130514 0.00137347 -0.0261983 -0.0116351 0.0035011 -0.0246604 -0.0120364 0.00319545 
-0.0221742 -0.0128579 0.00258676 -0.0199344 -0.0119757 0.00220854 -0.0182547 -0.012443 0.000966531 
-0.016246 -0.0121901 0.000322697 -0.0150721 -0.0126155 0.000206131 -0.0140108 -0.0117254 3.12004e-05 
-0.0102152 -0.0121498 0.00136137 -0.00688296 -0.0126983 0.0013842 -0.00336385 -0.0113781 0.00158952 
-0.00205008 -0.0119978 0.00165665 -0.000589002 -0.0110313 0.00145408 0.00523714 -0.0115585 0.00097274 
0.00650853 -0.0114481 0.000486213 0.0102681 -0.0127061 0.000961181 0.0114272 -0.0133045 -1.67947e-05 
0.0135842 -0.0124843 0.00103936 0.0146185 -0.0126772 0.000700497 0.0219678 -0.0128685 0.000750825 
0.0245311 -0.0126252 0.00136376 -0.0270159 -0.0108974 0.00257806 -0.0249944 -0.0110021 0.00361829 
-0.0235446 -0.0117505 0.00281151 -0.0214224 -0.0113525 0.00160574 -0.0164633 -0.0107847 0.000556261 
-0.0143557 -0.0105583 0.00028001 -0.00585079 -0.0108085 0.00165923 -0.00450798 -0.0109543 0.00202208 
-0.00336294 -0.0101695 0.00173383 -0.00195891 -0.0105918 0.00081348 0.000641482 -0.0109001 0.00117493 
0.00335497 -0.010111 0.000452643 0.00925902 -0.0113274 0.00107879 0.0109781 -0.0113977 0.000788 
0.0151927 -0.0118693 0.00180557 0.0167235 -0.0115426 0.00029242 0.0178289 -0.0112805 0.000846985 
0.0194802 -0.011921 0.00155414 0.0247295 -0.0106071 0.00163328 0.0270166 -0.0112057 0.000988156 
-0.0259477 -0.0103978 0.00360548 -0.0238387 -0.0105898 0.00317089 -0.0190819 -0.0113424 0.00147067 
-0.0176596 -0.0116934 0.00171352 -0.0165893 -0.0112625 0.00199077 -0.012829 -0.0110854 0.000525185 
-0.0121008 -0.0113465 0.00145315 -0.00925024 -0.010659 0.00148419 -0.00808141 -0.00990419 0.00118481 
-0.00695891 -0.0102469 0.00145254 -0.00453984 -0.00941546 0.00220724 -0.000817606 -0.0101148 -2.19221e-05 
0.00174268 -0.0100982 0.000937042 0.0050362 -0.00999413 0.000640135 0.00652552 -0.0102898 0.00100471 
0.00762451 -0.0112776 0.000264409 0.01005 -0.0106114 0.000609174 0.0127285 -0.0119567 0.000534065 
0.0140754 -0.0112225 0.00130287 0.0154053 -0.0117122 0.000462086 0.0205819 -0.0112173 0.00156271 
0.0216468 -0.0107517 0.00153789 0.0229689 -0.0111747 0.00218078 0.026825 -0.0092564 0.00110288 
0.0276955 -0.00958767 0.000153646 -0.0270703 -0.0100329 0.00403004 -0.0263697 -0.00930787 0.00327013 
-0.022513 -0.010583 0.00307305 -0.020485 -0.0104559 0.00215793 -0.0191064 -0.00991423 0.00183884 
-0.0180633 -0.00979506 0.00230152 -0.0171741 -0.00989292 0.00163099 -0.0161437 -0.00917346 0.000136578 
-0.0158303 -0.00952457 0.0012796 -0.0144879 -0.00963533 0.00118942 -0.0127762 -0.0103319 0.00164939 
-0.0117217 -0.0100545 0.00197014 -0.0100347 -0.00961655 0.0016899 -0.00592573 -0.00964839 0.00194035 
-0.00375933 -0.00924046 0.00114603 -0.0016039 -0.00906984 0.000748568 0.00613485 -0.0101127 -6.59561e-05 
0.0085669 -0.0103419 0.000394527 0.0120282 -0.0103787 8.73945e-05 0.0140143 -0.0103117 0.000285435 
0.0151303 -0.00976083 0.000514175 0.0166276 -0.0103858 0.000215278 0.0184124 -0.010555 0.00178759 
0.0199124 -0.0106355 0.000235259 0.0223993 -0.00993238 0.0011537 0.0263542 -0.00949189 0.000104814 
-0.0266112 -0.00857875 0.00425794 -0.0244791 -0.00953903 0.003214 -0.0234358 -0.00917285 0.00362908 
[...]
POINT_DATA 17850
FIELD FieldData 6
id 1 17850 int
17615 2773 5764 3296 5200 5445 4121 4192 5480 
5407 5395 666 4230 816 4769 4215 1840 10477 
10281 5274 3841 5380 10845 96 3300 4690 9003 
17562 17584 5505 7949 5138 15570 3441 7629 6380 
3935 8331 9532 6363 1441 12153 324 5665 17765 
14218 7357 2867 6075 4253 5423 11435 974 9100 
6885 15547 13786 11669 2968 5301 8075 16689 5518 
7272 7965 12204 11187 6104 5465 16534 4780 1413 
6129 3149 7880 5487 5695 12315 3801 7079 13180 
7132 16339 12190 2809 647 7295 6805 17828 10549 
2124 14282 927 13749 6012 6317 10125 5368 4377 
14360 143 17329 8394 4459 5327 16426 11327 8860 
10463 5212 300 11434 4940 4760 10464 15556 7301 
11544 1461 7269 12936 14582 11552 14319 16884 6664 
7095 8353 14133 11736 17261 2134 5183 5106 6251 
17802 2265 351 8569 14482 1836 758 9151 14412 
9482 16597 5646 4676 12605 14346 7312 17427 484 
12807 9648 12716 10471 2942 16007 16289 16970 6983 
11769 3310 3591 11093 14058 15704 12193 7392 17390 
9385 8718 15997 10381 15494 17302 9885 9835 15508 
16830 8644 14573 5880 6205 12099 16604 13565 6808 
1808 6488 6330 17165 13416 16424 16609 8819 10936 
17177 4798 7646 14417 7717 8801 11949 14504 8540 
7513 1493 5801 12242 3940 5074 7242 10927 14548 
14435 12070 15616 5748 14843 4227 15175 5857 9467 
11984 5065 13365 13716 11074 3781 10419 3344 15092 
15797 9794 16583 7893 12972 437 12702 6804 14388 
7319 16893 16258 7520 3101 13683 6573 9550 9547 
8029 1756 3423 9979 1467 10493 7922 9681 14595 
8549 3407 5598 9730 597 10408 8415 10119 9420 
14938 10257 6786 10824 15337 9656 621 9742 3895 
8876 1296 17356 4742 2791 16104 11587 9334 15166 
11744 4702 5859 9721 6109 140 9489 5527 12136 
17204 6004 8851 1217 15575 9632 13552 1218 12365 
10581 6326 3687 12169 11319 10232 8683 4979 904 
1549 16208 9139 5055 12752 7112 7903 15440 10349 
1450 7675 17240 2382 15509 2460 11705 10264 4226 
3262 1541 17583 5795 10353 10735 12594 2316 10586 
7140 11041 14021 5320 17656 17364 1325 15321 2603 
10736 12478 7036 10612 1055 2513 14293 8673 8401 
3042 6858 7978 1343 11521 9381 11055 8855 1675 
15918 5753 6391 11923 9414 11506 7790 10625 2439 
9031 8557 11654 11410 5754 260 4525 4817 11338 
6795 3487 16748 7688 16491 2344 525 12468 14836 
10345 8848 1948 2668 874 10423 1063 4835 2359 
1099 13195 17164 16109 15826 13168 10745 2510 7892 
10249 2672 11287 10217 1997 6979 13574 1220 6329 
10918 4085 7936 2026 3480 8501 7361 9017 13143 
11662 16717 13015 3028 602 5435 9059 7196 11932 
12244 646 6851 4504 1801 4846 2488 8635 9575 
16008 15053 11986 13930 11642 12381 2268 8376 5535 
10208 5949 9295 15200 3447 4348 7913 767 3966 
1854 4937 7394 9819 9895 176 6274 3086 11690 
11688 9446 9789 16739 17456 2899 3148 3021 880 
161 7427 4161 7240 5352 8272 930 11426 3277 
5532 8936 7171 9439 9089 15603 2171 357 6951 
2844 1389 10760 2177 5440 9103 3727 13403 6117 
7792 16673 15021 4772 5387 11184 11697 2329 7364 
4565 10567 8091 9626 3717 10439 6511 3993 2541 
9009 16728 12352 10642 12230 12496 7590 7226 664 
2928 4342 13178 7192 1169 392 4410 5679 12094 
5734 6266 4517 2673 5307 13341 8477 12571 3983 
7537 1311 3874 9048 7344 10272 12689 11232 2686 
5170 16411 9646 7794 4500 444 4542 6684 4729 
6052 272 3033 7984 7525 6395 11190 5888 7154 
3490 7195 15485 7666 15105 7472 5290 12677 12133 
1814 6725 1327 6626 4582 2053 11037 5597 12225 
4052 5137 9976 7310 6299 2993 9916 14554 7219 
7700 3899 7837 353 7281 6754 6154 1847 1737 
9728 6088 6232 1182 8627 10403 4944 10648 16937 
8087 11330 6153 11382 3974 8135 11200 5524 3797 
1382 16974 9013 5102 15156 11062 12667 7083 10907 
5587 11755 1278 5559 11449 1830 4537 13624 6740 
6572 2266 11151 10793 11979 12470 482 17538 9883 
12200 5579 5797 9288 9676 9453 12064 6535 1235 
3558 7579 2440 9592 6016 8625 10742 2820 138 
5537 10852 9719 12608 2565 6393 10329 8429 12008 
7182 12345 12119 15606 9081 7184 4856 11735 17246 
5158 9007 172 4644 6362 4628 17509 9907 4970 
562 17677 5475 5295 11185 10830 9309 11097 4162 
7456 5525 17438 7005 7610 8533 3335 5601 6890 
10495 2233 9873 11011 12419 7690 8811 15471 11548 
9043 5716 9805 1475 13822 9338 3372 10957 3164 
1032 4112 2141 10184 9896 750 1036 4655 82 
14526 9645 11519 7277 4036 1795 9784 1289 201 
17047 11369 12682 7 17350 3855 407 2014 15308 
9521 6697 8854 3663 10000 5062 9772 6381 1468 
11430 12209 1349 3307 1053 4888 5329 6562 554 
3934 3491 7305 5792 17687 16589 11289 1052 12783 
11076 2748 12057 17094 10052 1128 16297 7926 13399 
16327 7022 4761 8486 16080 2913 6245 13860 13979 
9366 15839 9997 11052 8865 241 4238 368 3345 
2640 15461 12339 16024 12900 520 9463 17330 4802 
469 11636 16054 5294 10792 14734 15759 14303 17000 
13765 10786 16774 1183 314 5547 454 17421 13453 
17189 5739 12931 10996 15865 17732 2003 9562 1911 
6813 1170 6369 12535 4067 12730 15926 14460 6440 
8456 1009 5867 6514 3784 6383 3638 6578 1245 
8531 1105 10106 4081 15147 16610 8283 7990 5715 
5049 10144 3853 5247 8522 3954 15755 13063 2995 
2219 12549 4120 16344 12705 5849 9213 192 9266 
2320 5972 1793 532 4010 11399 4794 9192 8968 
5311 11458 10756 1522 3805 115 2350 494 3068 
17716 1625 7247 12578 2291 6082 5804 5627 2997 
2185 7275 730 10521 2135 8067 3618 2041 2986 
9150 16216 4627 6744 6734 9804 8274 14660 10963 
11980 15870 3245 12465 1706 8473 11403 7838 5510 
6946 7507 10654 2468 10620 4158 3582 3324 8078 
14359 10034 3625 3117 10571 8733 3241 3098 12882 
1518 10687 6905 2081 11054 12020 3263 8467 10475 
17319 7237 2614 9199 12146 152 3070 10242 12194 
5217 960 11609 10436 299 10342 7748 8464 11892 
7244 60 5575 10340 13052 9866 7369 15609 5848 
2770 6782 3709 1984 8618 4395 7674 17644 6654 
5596 250 9186 3126 5811 3979 741 10110 6294 
5694 2768 4217 3798 9549 1039 11420 12600 5056 
639 5900 10080 9062 9260 5121 3386 6115 10624 
10872 15621 5112 2755 1865 7614 7113 10968 7760 
10535 2239 11134 5043 289 4264 1365 8869 7689 
12062 12296 2533 8946 7372 8132 3496 5025 650 
3481 4243 12715 5512 8981 726 6108 399 6665 
12395 2345 8922 4613 11931 12745 6513 6047 6759 
1363 1748 6110 3848 5661 5416 10881 3908 313 
4911 5755 5577 3359 263 6468 3654 4249 6426 
4498 566 535 10757 5820 11355 4722 6649 7283 
1485 12252 775 3837 1483 6160 2200 287 3994 
7822 12731 463 473 4862 4793 9187 8466 1923 
8190 2782 107 2251 558 3161 2691 4637 202 
376 3767 5484 4845 5019 5507 1205 17154 15834 
12483 1051 3306 2423 6451 17778 11167 17392 3099 
4402 8164 14689 1021 1999 4464 8649 144 158 
4351 1993 6325 6437 9872 4523 8808 6107 5322 
1860 4873 350 9638 6834 12787 4025 1022 3102 
4430 8291 15294 14722 1185 13568 11298 11836 1380 
3137 2205 10848 5769 17307 10889 11851 5677 937 
3203 6242 16189 10763 15098 10750 5100 9198 13098 
8334 3881 9195 6741 2656 116 10903 15996 3674 
13206 13222 5490 4764 1845 13829 1030 8957 15630 
8954 339 17411 8019 15270 11020 16525 15963 13968 
9913 8882 4366 11957 1346 6984 5141 6241 15828 
12974 13376 2178 3510 6364 14875 17625 16421 16377 
8246 6875 11672 5895 6283 2174 10230 9553 1000 
13844 17745 7291 15549 10305 8273 5120 5856 7606 
6423 12014 16294 9616 10087 14048 13980 17424 9049 
7665 13103 8536 9921 1489 45 10729 3816 13089 
12817 9361 9104 8000 9146 9927 3494 4336 15199 
8445 10136 11904 11242 7516 991 6291 15438 3692 
4428 15646 5542 630 15134 14103 14006 17414 10043 
9851 14784 8845 9901 8231 3813 187 9628 13859 
13323 14976 7265 304 6065 1566 17354 17387 17331 
12033 8689 12259 6028 5767 13871 8088 10559 2810 
3786 552 6070 9761 8257 17019 15990 3791 6401 
11749 803 1718 5061 16420 13898 1607 11888 10488 
11503 5370 1947 2528 10950 401 6189 11666 6931 
4661 1893 8201 8738 16394 280 11455 15022 10280 
2925 2019 5343 12847 1833 12289 12449 3952 16704 
6213 9060 4877 9164 867 6959 14176 234 14483 
1197 16037 16409 14987 11945 15674 4247 10969 3401 
7679 1510 2197 8542 7410 1443 2651 4563 16560 
10990 14856 16768 15977 6011 7322 4205 1531 4103 
11278 7255 11588 11147 16960 15811 6234 7724 14258 
11574 4684 2156 11396 16672 1811 17036 8645 15167 
11916 10170 4101 6277 17786 2950 1940 9153 1943 
9071 12297 14243 8011 7138 2885 11599 11468 14053 
1953 11024 811 11975 7911 13560 340 7134 16953 
379 15693 11229 6915 12074 6556 7727 3142 8407 
1072 8290 8453 4083 546 13113 2011 17645 5249 
928 2364 347 5047 4325 3106 8510 1254 16026 
5013 3330 6660 3180 5752 15605 3458 11859 9526 
1975 432 3750 4716 4838 1528 6177 9217 17474 
3264 11566 6710 11221 2806 8671 6161 12017 1028 
4991 4098 2929 2385 5303 13883 3535 606 15503 
15377 8805 2443 5147 2858 11122 2780 890 3525 
4040 2119 10359 3429 3623 5199 2708 4748 10040 
11675 9306 7644 17156 9134 7710 17832 1588 9342 
6275 3726 2600 5296 6285 8436 883 16204 8829 
641 1175 6540 4388 7487 15198 15445 4955 11279 
2868 3645 5967 8306 7793 13852 7788 7534 9809 
12006 6306 4407 10198 4491 1285 5733 1515 6651 
8133 14358 195 1412 8875 1201 6091 14478 8099 
9703 16213 9830 6188 10448 707 1605 820 12195 
5143 6015 6483 15241 5957 11422 14834 961 11404 
5391 286 9625 9878 11183 8461 11910 5702 9619 
6728 3531 11436 4847 72 3683 7524 16826 11143 
12845 9175 9363 8728 3384 982 10635 8564 1086 
11929 6150 3472 14751 15559 7616 7448 14138 10228 
2392 3871 9021 5489 685 2723 987 17608 886 
10768 10961 11526 11216 2815 5476 11823 1111 6502 
11797 1539 3046 10114 11486 6020 12525 2620 9149 
2994 4302 586 10260 9409 16941 15209 8693 11861 
16301 6603 2540 16907 4291 5638 1238 6336 1384 
17838 10794 2752 6882 7834 10273 6826 3806 8528 
19 3316 2299 4239 16422 5572 7867 1353 5802 
1741 11145 6711 10577 4535 3422 7897 10602 10519 
15817 17289 5000 12922 12935 5847 12546 7129 9360 
11000 10311 4206 9861 7133 1199 5414 2881 6841 
12554 7212 15690 2923 3337 5970 10218 491 5879 
575 9565 2857 17315 8442 2624 5421 10459 10751 
5351 7105 10474 4059 7742 5357 9001 9780 16138 
9531 5909 2486 1136 11894 7104 10641 10517 8199 
1548 9989 10023 9410 12186 6093 6459 7396 4012 
6041 9732 11293 6155 5317 10209 10331 10806 15233 
2972 15410 15943 14714 11840 12415 2804 3661 3554 
3509 8233 11655 4475 7955 14549 11903 11448 13917 
7967 16849 14250 14977 12102 9618 9219 3760 8634 
8800 17323 10243 5919 103 947 16333 10012 7382 
3192 6693 10255 6078 3421 8126 6098 11226 11071 
4131 5898 2062 7797 1641 4875 15476 11153 8945 
9940 8565 3124 3089 589 4051 7596 5003 7832 
135 9881 5299 9263 11393 14975 9471 12043 9472 
8930 16733 885 3957 7514 346 13519 8605 12723 
12985 6730 4737 2025 4222 6864 11629 7500 6368 
5438 2227 5778 4447 5344 4290 8366 11036 10347 
8475 6332 12158 7101 3856 12899 10283 7673 302 
10252 4619 13169 17322 8209 4759 6683 5063 7029 
6501 10956 2992 7211 4763 4571 13354 4195 4298 
11922 7373 4922 4339 3604 3247 17843 11522 13370 
13596 9367 4543 3184 12666 10182 17404 15284 2833 
9068 10978 14 5905 17457 12996 4903 6128 16358 
12301 9596 5713 12567 17813 10042 3062 17344 3529 
654 5064 13571 10655 15133 13526 11453 8418 12258 
844 7636 6743 2482 764 9318 2887 11265 3804 
12032 9491 10772 15236 15249 8229 16027 4248 1621 
3707 743 5273 5901 9445 7055 15737 15709 8620 
8068 5635 2480 2878 7914 7333 10680 5615 8984 
12229 12873 11828 14552 16674 10590 4678 11261 17728 
7591 3200 3667 16 7569 12007 6420 12425 14272 
15619 4766 7680 12342 17324 9602 661 3195 1592 
3556 17373 3095 3297 1031 17580 3289 17219 9507 
5123 6765 7065 6276 2088 658 16915 3321 5693 
6340 11743 10382 15456 6678 6376 10833 7241 9112 
3489 12529 6494 9348 7053 1440 1900 6067 8111 
8485 7225 1432 4925 9362 8013 8451 11983 10175 
10292 4826 9555 9369 5766 13086 17639 12674 8216 
6181 15776 6237 12664 12220 14195 3772 13300 8700 
11138 6534 3212 7575 15379 11243 7027 581 1108 
10130 2756 10048 9825 11770 4647 9585 5593 4946 
8112 39 6454 1827 3961 1160 4200 848 7972 
4286 5806 1712 17781 12067 12650 8653 729 2158 
10544 16492 542 7202 7062 2697 8074 9075 9454 
5323 1632 11323 6051 843 8355 15612 12892 7030 
10210 3971 10076 3695 14132 8552 2588 1749 1084 
7720 5459 16550 13608 239 8125 6668 802 206 
5745 1603 5091 4301 11637 6802 1157 7286 8163 
10054 10900 2816 5108 4276 6303 3555 9337 15384 
7279 9909 6628 12163 13292 12263 3989 6887 10929 
8035 2072 5815 3826 352 9298 6087 7278 1618 
1615 5428 8299 2525 11810 1446 9181 10994 7844 
91 1442 1453 6000 1585 9678 6596 4651 6236 
1174 2352 1834 6568 13522 4918 4952 1562 361 
3039 1892 10133 572 6694 477 2231 6632 3740 
356 8972 3060 5515 6648 9734 6491 5959 3733 
6662 2954 3150 145 1078 3754 1657 2917 1554 
5161 6871 3363 4812 1200 3067 10887 7619 14409 
8835 3047 10413 8349 2795 10425 1933 6727 2430 
11943 297 7843 12838 5796 11228 3668 3902 17303 
4860 5422 1746 11126 1511 9091 11907 14522 9747 
2534 11129 5656 1778 1026 4184 10805 6392 8496 
15867 10649 7438 9864 290 249 10737 10901 10660 
9655 10202 6914 10336 15698 10573 10466 10291 4404 
963 6116 6907 12495 7449 9470 12159 11069 15495 
11281 12332 2941 10177 275 6470 10790 12116 2276 
4485 2042 13096 2118 5833 1409 4208 5649 14867 
11219 2269 7960 16686 8615 17045 10815 11751 4252 
1574 9538 1225 1968 8772 11606 16065 8311 10194 
6739 16385 13267 5708 6130 4806 9567 6981 5157 
13825 14420 8136 14415 9767 13674 13326 12739 4273 
6533 1563 4550 2958 9216 7586 10102 7959 15136 
16366 2028 16680 17031 7908 4795 1395 11466 13024 
1707 5903 8447 14755 17496 8063 8253 5913 14616 
10695 1287 7292 2704 5995 14004 15296 2354 13067 
14324 14839 15170 16533 11089 1535 5434 10354 8131 
13386 16287 16448 10151 1742 416 5097 3006 7633 
2096 7222 15457 9384 17021 17804 1501 8197 16132 
14224 3620 2489 11421 9685 13162 11476 11959 11527 
7189 4218 7988 16472 17229 16795 12264 5883 5839 
16226 11818 11317 5997 2170 4823 13172 4883 6994 
12471 2362 2948 15023 10681 16180 16606 3398 13293 
9695 8595 298 17176 16986 13741 10500 5315 10993 
11718 8611 11366 8581 16224 7214 3369 14441 6135 
11647 14125 14895 17840 11290 2037 11238 14760 3257 
10638 11540 10246 15402 12481 15891 12961 14462 6457 
13 424 3049 15376 9170 14819 13307 14423 11456 
6737 3627 5262 5081 13744 9038 9182 9142 10766 
7235 7958 13244 10594 6794 14728 17380 9716 11764 
1804 17394 11454 13655 9884 9969 3399 6219 4405 
6101 11968 4283 9200 2852 11873 10497 2987 9166 
10467 577 11867 4785 12660 5889 4913 12502 13266 
16740 11095 8086 9046 375 9775 13858 5306 674 
6523 10479 435 1887 16485 2943 16815 10551 7947 
8859 6810 5589 13897 8992 12434 6247 6672 4560 
1168 10013 6799 4493 5585 17292 4431 11259 9137 
8846 8454 3842 11561 12661 9759 13575 7070 12068 
7639 4292 2926 5390 6419 10864 1049 3677 5929 
4707 8995 9799 2264 14539 5794 2836 17783 14596 
1082 6210 14433 7869 9684 9777 7488 6532 714 
4296 12680 4968 8607 12364 3775 3226 12624 1879 
9871 6698 3505 12411 9693 13482 10988 17700 8348 
7262 3032 12424 8935 6867 5691 8398 4279 2459 
1391 2212 8818 10139 3298 8767 6563 1839 1240 
12486 16357 12179 13105 9525 7231 13490 14825 7051 
11061 4462 12580 12519 12866 8043 17103 9267 7814 
3450 12184 2425 3637 2383 12010 10203 10469 13545 
17282 12859 12384 5958 7458 1722 5105 4765 10599 
2190 169 8446 7157 10212 14124 2960 10213 8254 
16254 7362 16592 13081 5152 5701 5793 11342 1025 
11504 4201 1143 1190 2922 3785 2664 3783 6471 
5497 17382 17621 15488 16005 6473 4187 3188 12171 
5167 5564 5227 345 5015 9254 11378 1719 4293 
3221 2046 15214 17668 9183 15765 17359 16116 4833 
6007 1313 12487 13315 1560 3746 8307 15589 3146 
10004 6158 2370 5176 6072 4653 11117 16693 10388 
15601 16808 8619 11009 6208 2260 12272 7855 12704 
12791 9281 14989 5204 11282 9710 1015 2424 6446 
7925 6935 16490 12768 7805 13091 4532 10865 4814 
15750 2504 10367 10437 14544 14149 2738 11586 11695 
1059 6064 2938 405 1617 12756 14842 9855 4275 
11385 10966 384 4254 5241 12993 9248 12539 17476 
15658 11855 3402 4573 4437 1647 1823 6484 10234 
104 6229 1734 5607 9762 8314 3329 10514 10303 
11386 2305 6063 2093 3361 8554 669 13264 10304 
1133 11953 7106 7052 10509 11612 10057 4783 2736 
10300 6576 12426 10309 9776 12683 17723 3147 2433 
14208 14681 2784 11597 8391 12725 6792 12585 1660 
8841 9044 10355 2394 6384 1165 929 1674 9145 
11535 10406 10148 3773 12646 12749 1717 12063 17296 
8810 2396 5149 3328 3534 7650 7379 8226 1418 
11942 3125 3737 1768 2069 7413 12390 13776 5526 
5350 4857 557 8740 11199 10863 9397 13444 4815 
156 4472 11132 834 11223 6436 11721 11689 5932 
503 10156 11163 13408 14862 12040 16035 798 4953 
8302 11635 12201 1403 9635 2056 2569 9756 16210 
10538 10187 4706 6970 4799 16017 3946 12269 983 
2818 13557 9733 10263 7018 3793 3100 7407 4825 
13422 10998 17515 6701 8831 12619 12350 2530 15890 
8369 16071 11511 7297 13440 11099 2389 6742 17792 
993 5113 17256 8895 6243 6427 5018 2293 1965 
14485 15263 10313 1790 12604 2429 10029 11353 17406 
15111 8435 5420 2045 999 6054 15164 14572 15466 
10773 5258 10971 9892 8782 6113 6943 7386 16819 
17769 784 6112 8539 9599 5034 5882 17821 11878 
9707 17631 5931 1863 8955 12140 11937 16850 7935 
11557 16515 7328 3059 8021 13824 12750 10787 6225 
4575 10058 3516 10082 17675 10059 428 11731 3418 
10063 16804 4986 17510 5430 11844 12054 8970 15450 
16882 8284 8119 2662 7970 1431 14144 8432 5948 
14454 16614 14879 1152 1124 3303 3079 9576 12174 
1359 603 6287 9503 11835 5182 6705 8077 747 
5336 13298 8259 682 6260 7728 3564 11757 71 
5159 14210 7221 8566 2850 7440 9356 5863 14524 
13061 5090 1372 3650 2829 17061 16364 5110 5285 
10179 16507 14289 6785 1445 12701 7986 5759 9428 
5431 7358 15554 16380 6045 9828 12617 343 10781 
9589 4007 6405 1516 17746 14083 17346 16201 16048 
2586 13381 4840 7821 14052 12728 8602 8343 17391 
1126 9455 2646 5326 5951 4099 16506 13647 15446 
13448 13919 12735 11326 3937 12414 1730 10970 4480 
8630 1 8242 9847 9850 17074 14512 8555 6721 
7603 645 985 17607 2071 14302 11394 1959 2414 
12479 4703 16920 13192 17721 14765 12087 1832 6086 
4949 17079 16695 10379 1931 2587 2390 16780 9039 
16577 14178 3731 4923 11567 6151 7620 16480 12374 
17724 7685 4755 3506 1221 2337 9061 2658 12372 
598 9097 7864 12132 17554 15076 6925 5436 16001 
11829 11210 4771 1973 8282 11049 2706 15331 7230 
9598 12049 10426 10191 2978 4521 981 1144 11897 
11032 5822 5606 7043 16928 9557 3698 11523 8707 
10939 14750 3189 720 10552 16865 9191 14684 3053 
1668 7968 2765 6991 4902 14675 17600 11023 11102 
16034 10254 10761 3044 1894 11483 10527 17766 13479 
9617 8852 8702 8098 4789 2893 5228 1422 16122 
10547 12552 4105 5918 4749 4156 10524 2066 4317 
9946 9413 8137 5636 859 15821 4334 11641 8452 
22 4132 10566 16356 12921 5088 11719 536 11354 
8998 9387 9917 5719 1954 4486 6538 6029 12024 
11687 5482 9698 7454 9515 11344 3694 12626 11284 
7317 13587 6948 7961 1523 4316 12647 4328 11263 
10820 13041 5325 7324 5591 1692 5022 12584 15366 
10451 11788 12464 5009 1266 16998 14740 7731 10204 
9086 10397 3575 3879 4616 8380 3745 10910 1701 
6679 14870 16107 6520 11990 3574 3610 5735 5496 
7607 5297 9970 11168 7824 2001 148 7209 6282 
4830 14723 4876 12691 8696 8514 9593 10409 8929 
2372 9423 4844 9536 4166 10391 3331 1758 3666 
1569 8323 3532 1252 1302 3093 4289 2801 3454 
6509 354 7550 1116 6268 1451 3063 11889 8646 
2677 11171 1906 2682 21 10457 5192 3588 6301 
5079 810 9773 10898 4591 2199 17360 4385 2797 
4011 2058 2159 11772 8813 12518 13646 15846 5101 
6084 3514 4993 4758 7917 7715 13739 11178 5345 
10536 1356 3523 3239 7498 8336 12863 2098 16434 
16056 11262 1247 14389 5070 6270 6497 8824 7433 
8270 16158 7254 5276 11803 9944 5751 13426 7431 
3777 13203 7116 10001 242 9502 7107 17152 10665 
8695 12878 9041 5340 4477 11553 14313 1368 14872 
16682 15347 17316 11940 10453 9841 5776 6995 5115 
1478 11374 15580 11085 15913 16316 7580 7061 175 
3822 3003 605 3840 3428 13711 2225 12488 11740 
16407 13050 8096 3177 4668 13751 9176 2163 12998 
10856 16518 5876 15007 7733 10877 3460 86 3752 
2055 9232 9228 17640 9887 17636 16198 6309 8969 
14550 16134 14942 17318 6396 7145 1699 6465 4154 
11115 8934 11572 16901 8568 12596 8999 16793 14129 
11645 17182 10553 12299 1870 7058 11758 14794 12777 
11273 3964 14270 17458 13115 13410 10513 7141 16076 
16369 14033 7348 5645 12431 3109 17826 15625 14442 
16458 17754 11926 13268 14128 10626 3151 13603 14717 
9258 17755 9032 8614 11577 3743 4338 12036 608 
10769 8704 11116 12923 13009 460 12427 3646 17279 