# vtk DataFile Version 5.1
Generated by LIGGGHTS
ASCII
DATASET POLYDATA
POINTS 17850 float
-0.00226943 -0.0282394 0.0018667 -0.00667623 -0.0257305 0.00188118 0.0030561 -0.0211105 0.00179245 
0.012093 -0.0115706 0.00187136 0.0127931 -0.0104021 0.00185222 -0.0112683 -0.0101434 0.00186674 
-0.0157697 -0.00901706 0.00186004 -0.0109708 -0.00821075 0.00180147 0.0284121 -0.00394653 0.00196203 
0.0271024 -0.00220621 0.00193304 0.0291031 0.00183878 0.00210476 -0.0154166 0.00445753 0.00186351 
0.0291597 0.00297958 0.00198529 0.0261418 0.00712272 0.00193907 0.013586 0.0123772 0.00180571 
0.0166345 0.0155781 0.00184972 0.0185514 0.0143142 0.00185745 -0.0198539 0.0187898 0.00208756 
0.0129394 0.0200695 0.00185658 -0.00545819 -0.0288568 0.00185778 -0.00440229 -0.0290399 0.00190983 
0.00526103 -0.028623 0.00197178 -0.00762657 -0.0284306 0.00190119 0.00297411 -0.0292637 0.00191409 
-0.00984624 -0.0276795 0.00186306 -0.00863403 -0.0280931 0.00190306 -0.00428758 -0.0277186 0.00193356 
0.00188943 -0.0279545 0.00190412 0.00841315 -0.0277044 0.00178883 -0.00631091 -0.0269629 0.00185979 
-0.00246678 -0.02691 0.00191169 -0.00138233 -0.0275923 0.00186914 0.0029708 -0.0277086 0.00183775 
-0.0102551 -0.0265871 0.00192274 -0.00530603 -0.0264267 0.00187051 -0.000579945 -0.0264422 0.00202664 
0.00296756 -0.0263203 0.00181748 0.00378665 -0.0269754 0.00189088 -0.0113419 -0.0257856 0.00194275 
-0.00910959 -0.025584 0.00200152 -0.00798359 -0.02544 0.00194961 -0.00240248 -0.0254034 0.0019137 
-0.00116647 -0.0254465 0.00190007 0.00265647 -0.025421 0.00219671 0.00708817 -0.0246832 0.00183003 
-0.0154791 -0.0244224 0.00184998 -0.0140344 -0.0256641 0.00193212 -0.0124037 -0.0249391 0.0020684 
-0.0113178 -0.0246527 0.0018706 -0.00838606 -0.0244402 0.00197219 9.40387e-05 -0.0244195 0.00185109 
0.00184834 -0.024783 0.00185167 0.00957754 -0.0257101 0.00186311 0.015105 -0.0240967 0.00188313 
-0.00966328 -0.0242487 0.00189603 -0.00676743 -0.0238893 0.00189244 -0.00429554 -0.0240375 0.00193078 
0.00103021 -0.023769 0.0018525 0.00724332 -0.0232897 0.00181058 0.0163081 -0.0244919 0.0018196 
-0.0175611 -0.023562 0.00182829 -0.0162113 -0.0225642 0.00187144 -0.0147965 -0.0235721 0.00184292 
-0.0106835 -0.0237617 0.00187347 -0.00886703 -0.0233998 0.00181621 -0.00777817 -0.0235573 0.00184726 
-0.0012769 -0.0234146 0.00185279 0.018156 -0.0228515 0.00181386 -0.0173966 -0.0225334 0.00183718 
-0.0113681 -0.0229133 0.00186511 0.0134494 -0.0220789 0.00213706 0.016025 -0.023432 0.00208643 
0.0166757 -0.0223505 0.00185891 -0.0159729 -0.0214698 0.00204691 -0.0146504 -0.0215901 0.00192869 
-0.0106371 -0.0213475 0.00183599 -0.00826019 -0.0213425 0.00186566 -0.00335966 -0.0212428 0.00190045 
-0.00214056 -0.0211189 0.0018567 0.0179534 -0.0203469 0.00190023 -0.0131484 -0.0201146 0.00182259 
-0.00977642 -0.0206318 0.00194706 -0.00706555 -0.0195912 0.00185818 0.00220688 -0.0204706 0.00189408 
0.003716 -0.0203178 0.00178745 0.0115049 -0.0208893 0.00178541 -0.0197396 -0.0189403 0.00185372 
-0.0163189 -0.0195019 0.00184269 -0.0115733 -0.0192043 0.00188024 -0.0102052 -0.0191832 0.00216474 
0.0118343 -0.0191319 0.00184005 -0.0219683 -0.0186622 0.00183024 -0.018588 -0.0190418 0.0019506 
-0.0167183 -0.0184654 0.00188883 -0.0154442 -0.0187389 0.00188339 -0.00907613 -0.0191891 0.00185617 
-0.00117455 -0.0190812 0.00181387 0.00110493 -0.0198803 0.00176581 0.00344271 -0.0187278 0.00181871 
0.00818809 -0.0189805 0.00179168 -0.0131303 -0.0179509 0.00185401 -0.0107736 -0.0182429 0.00180303 
-0.000569666 -0.0181315 0.00180428 -0.0160926 -0.0175039 0.00188094 -0.0149469 -0.0177124 0.00185464 
-0.0111286 -0.0172016 0.00185991 -0.0082356 -0.0170048 0.00181454 0.0112346 -0.0168051 0.00182026 
-0.0235927 -0.0175506 0.00196599 -0.0211813 -0.0163928 0.00179194 -0.0170286 -0.0168204 0.00186715 
-0.0122969 -0.01648 0.00187397 -0.0102765 -0.0159485 0.00184644 -0.00742605 -0.0162685 0.00184375 
0.00515393 -0.015153 0.00189275 0.00586033 -0.0160622 0.00193049 -0.0200125 -0.0159039 0.00197907 
-0.00895846 -0.0160562 0.00183907 -0.00808907 -0.0153591 0.00184428 -0.00697109 -0.0152824 0.00180184 
0.00109092 -0.0161329 0.00180263 0.00926977 -0.0156643 0.00184155 -0.0248958 -0.0150621 0.00187001 
-0.0239253 -0.0155459 0.00213117 -0.0222203 -0.0158887 0.00187886 -0.0043125 -0.0143807 0.00185027 
0.00125536 -0.0140327 0.00183505 0.00358403 -0.0147186 0.00189703 0.00622717 -0.0136151 0.00179075 
0.0136687 -0.0162235 0.00178299 0.0250365 -0.0152967 0.00189904 -0.0212664 -0.0148377 0.00184605 
-0.0190912 -0.0139098 0.00193265 -0.0162239 -0.0139084 0.00184761 -0.014061 -0.0137252 0.00180761 
-0.0126306 -0.0140588 0.00179679 0.000135497 -0.0139808 0.0018181 0.00367089 -0.0134215 0.00182504 
0.0127374 -0.014274 0.00191611 0.0217281 -0.0135125 0.00182331 0.0244838 -0.0141681 0.00181989 
-0.0254535 -0.0127485 0.0018808 -0.0241922 -0.0137263 0.00188735 -0.0225739 -0.0143268 0.0018707 
-0.0109309 -0.0132862 0.00192745 -0.00893652 -0.0135836 0.00180225 0.00216725 -0.012156 0.00191551 
0.0226826 -0.0129125 0.00183303 -0.0205235 -0.0134176 0.00192476 -0.0118367 -0.0125491 0.00183641 
-0.00966311 -0.0126605 0.00188896 -0.00788151 -0.0133124 0.00181909 -0.00122346 -0.0130243 0.00194474 
0.000319863 -0.012713 0.00188425 0.00909685 -0.0120872 0.00184386 0.0115161 -0.0125978 0.00196347 
0.0241941 -0.0116819 0.00184467 0.0262084 -0.0123936 0.00191455 -0.0255044 -0.0115543 0.00194474 
-0.022098 -0.0120976 0.00192572 -0.0209001 -0.0120878 0.00178329 -0.0163645 -0.0118208 0.00179903 
-0.0145284 -0.0124658 0.00184385 -0.0128855 -0.0130529 0.00189052 -0.00855612 -0.0124051 0.00181948 
-0.00684152 -0.0130159 0.00185806 0.00202129 -0.011091 0.00193026 0.0132758 -0.0122525 0.00181228 
0.0166498 -0.0115722 0.00179006 0.0176779 -0.0112411 0.00183266 -0.018819 -0.0113952 0.00192065 
-0.0129215 -0.0109182 0.00181405 -0.0115533 -0.0115047 0.00183032 -0.0103679 -0.0111559 0.00187746 
-0.00936352 -0.0115643 0.00181651 0.000112514 -0.0110998 0.00186344 0.0224226 -0.0105373 0.00186385 
0.024045 -0.0104307 0.00184331 0.0255265 -0.0106725 0.00183371 0.0270124 -0.0113928 0.001868 
-0.0177285 -0.0101453 0.00184944 -0.0160016 -0.0107619 0.00190943 -0.00832328 -0.011216 0.00185849 
-0.0071982 -0.0110525 0.00189001 0.00270661 -0.0102748 0.00180686 0.0176043 -0.00997842 0.00182683 
0.0266438 -0.00961021 0.00184234 -0.010189 -0.00997704 0.00184612 -0.00850059 -0.00966467 0.00179868 
-0.00548928 -0.00987736 0.00185503 -0.00206211 -0.0105448 0.00184716 -0.000338498 -0.00992526 0.00185943 
0.0110323 -0.0103852 0.00180039 0.0117144 -0.00945627 0.00190022 0.0123553 -0.00849943 0.00190717 
-0.0135096 -0.00933864 0.00191104 -0.0116088 -0.00901837 0.00200154 -0.007787 -0.00871442 0.00184834 
-0.00371075 -0.00917372 0.00180655 -0.00157084 -0.00889381 0.00196546 0.00789836 -0.00881903 0.00184177 
0.00914417 -0.00890709 0.00182741 0.017477 -0.00874194 0.00200906 0.0184187 -0.00925304 0.00180649 
0.0248772 -0.00847712 0.00180813 0.0268006 -0.00829017 0.00192162 0.0280949 -0.00859012 0.00190779 
-0.028016 -0.00844444 0.00225485 -0.0157521 -0.00796352 0.00192348 -0.0138695 -0.00781289 0.0020111 
-0.0127489 -0.00862108 0.0019477 -0.00504552 -0.00770299 0.0018003 -0.00263609 -0.0083505 0.0018849 
3.82869e-05 -0.00881503 0.0018476 0.0217766 -0.00769936 0.00181604 -0.0252547 -0.00836251 0.00181852 
-0.0119562 -0.00796516 0.00205782 -0.00863716 -0.00712877 0.00178414 -0.00748497 -0.0076324 0.00181473 
-0.00608088 -0.00786042 0.00177336 -0.0038074 -0.0072317 0.00186753 -0.00254119 -0.00720153 0.00187869 
0.00252912 -0.00743754 0.00214973 0.0111939 -0.00771989 0.0018089 0.0265278 -0.00704321 0.0019157 
0.0275612 -0.00651612 0.00210623 -0.0153009 -0.00625879 0.00184937 -0.00944206 -0.00635184 0.0018523 
0.000112641 -0.00706691 0.00184262 0.0079811 -0.00703958 0.00185385 0.0201181 -0.00675864 0.00183649 
0.0259306 -0.00593982 0.00186357 0.0286689 -0.00630269 0.00197408 -0.0243538 -0.00652 0.00200307 
-0.0140629 -0.00602541 0.00190304 -0.011483 -0.00644204 0.00192017 -0.00836193 -0.00591515 0.00186986 
-0.00317729 -0.00628478 0.00182696 -0.0011084 -0.00638807 0.00185204 0.0115082 -0.00565784 0.00208952 
0.0268023 -0.00523108 0.00200053 -0.0214442 -0.00522475 0.00194459 -0.00999804 -0.00537068 0.00187563 
-0.00904793 -0.00486593 0.00176634 0.000466252 -0.00536748 0.00184279 0.0242519 -0.00489891 0.00185941 
-0.0205403 -0.0041946 0.00180799 -0.00326745 -0.00415658 0.001905 0.00163066 -0.0046104 0.00222759 
0.0036954 -0.00388779 0.00189815 0.00747462 -0.00491177 0.00189412 0.0215538 -0.00454489 0.00184952 
0.0247684 -0.00365613 0.00185649 0.0259604 -0.00397328 0.00192135 -0.0191647 -0.00403857 0.00188127 
-0.0180551 -0.00385506 0.00203996 -0.000825851 -0.00383651 0.00188228 0.00040354 -0.00411862 0.00185726 
0.00168593 -0.0034335 0.00210498 0.00539928 -0.00320561 0.0018628 -0.0179343 -0.00248603 0.00185715 
-0.00554155 -0.00281424 0.00176467 -0.00449849 -0.00288724 0.00180472 0.00286901 -0.00296846 0.00182507 
0.0185854 -0.00322765 0.00187183 0.0215777 -0.00267566 0.00180435 0.0251644 -0.00245367 0.00185213 
-0.00177325 -0.00258956 0.00179395 0.0207215 -0.00196292 0.00186066 0.0262944 -0.0015023 0.00235804 
0.0282744 -0.00188875 0.00196019 -0.0193907 -0.00126951 0.00186153 -0.00451895 -0.00140804 0.00180172 
0.000293212 -0.00167118 0.00192289 0.00801148 -0.00243176 0.00187903 0.0102627 -0.00111825 0.00182131 
0.0238242 -0.00203924 0.00185559 -0.0181165 -0.000844109 0.00219539 0.023788 -0.00100281 0.001854 
-0.0183869 0.000786899 0.00205935 0.00276654 0.000187638 0.00192695 0.004727 -0.000795999 0.00190296 
0.028562 -4.70229e-05 0.00200689 -0.0168407 0.000865529 0.00188068 -0.0148531 0.000553428 0.00177537 
-0.0120426 -8.2937e-05 0.00182319 -0.000919624 0.00144552 0.00183294 0.00616282 0.000175474 0.00182603 
0.0120395 0.000387596 0.00203829 0.0202408 0.000476606 0.00192294 0.0218224 0.000594687 0.00194282 
0.0243227 0.000570816 0.00195782 0.0273112 4.57732e-05 0.00191561 -0.0175812 0.00171176 0.00184365 
[...]
POINT_DATA 17850
FIELD FieldData 6
id 1 17850 int
4863 11579 12153 14980 12138 14749 11481 12161 7889 
14793 9433 3355 5815 12278 16993 17825 8382 13691 
12231 6762 15640 15114 5160 3672 930 11808 324 
14755 11454 6141 11720 15359 4429 499 15625 11953 
17579 4458 11818 8883 14496 3021 4708 17754 11484 
5977 7527 242 9595 17718 11559 9341 3559 5246 
8708 5116 14787 2499 3870 15935 11450 9029 9542 
15792 17706 11574 10618 17839 17546 16125 16781 17122 
2218 14388 12823 4160 2734 506 464 14184 9875 
2431 2852 6675 6072 11186 15270 11358 7188 13357 
9429 12517 1438 2958 9180 15836 3995 6836 9832 
6148 17137 17385 11077 14155 2811 8222 5671 4674 
3394 17039 14315 10958 14367 3885 8598 14834 8808 
10829 2418 5486 6465 14856 3239 4285 245 13767 
11556 2699 11402 865 11947 15824 16723 5574 6309 
12759 3943 10078 13115 9103 9518 7016 2704 16305 
14725 11257 5403 9064 16240 16139 12904 5038 14257 
11259 8753 13019 3091 7486 4406 453 12376 6535 
297 12097 5645 16319 6894 4748 6177 17573 14166 
11508 4643 9420 12327 8306 4274 16257 11087 13729 
5267 7220 14614 8588 16327 4174 16052 5838 11364 
14215 15615 1975 10307 15577 6687 15990 16436 2915 
5650 8777 15204 5358 15982 10699 5961 1803 9486 
8872 861 7733 1018 647 2658 16374 16707 9607 
11507 6740 3849 17817 7309 16963 4316 16495 8198 
4303 11299 475 17172 11658 8428 6506 8593 12625 
2212 8043 7861 16286 14278 9920 2527 14189 2408 
17770 17264 4611 10969 10752 11539 4312 6990 10093 
5530 14054 2637 5280 1161 13097 13397 2333 14129 
6701 10484 4676 15818 5642 10854 11742 13764 4636 
7480 8415 5059 7593 10667 17084 12154 9898 6218 
5236 12957 13266 1627 14534 12290 2977 5945 12316 
12455 2014 12774 7266 10390 6299 2780 1235 11758 
655 15224 17382 12792 9801 12047 8833 8614 8573 
10384 13561 1712 12732 7070 11521 9258 8785 17052 
15197 3920 11292 16287 10561 8875 3302 12337 6705 
6892 12740 367 8050 3227 6862 4445 7952 15023 
4467 13647 14355 374 17342 10524 14396 15172 16036 
11326 4632 13432 5983 12143 255 16947 12744 6417 
17187 13326 10402 10639 1576 13884 7587 11949 6300 
720 7393 16086 17681 8789 12194 8121 2622 3279 
8619 4186 12469 1337 8869 10372 7306 17231 11530 
10301 8656 4577 9382 16481 17098 8433 6471 3604 
5896 15641 1296 17529 14378 4902 583 159 9515 
17631 16304 14827 3156 17810 8912 14888 15606 6164 
15103 6467 9124 2845 5270 8955 16555 16600 636 
10541 9399 10145 2458 17294 3871 5866 17072 10420 
10757 5016 958 11804 15803 9053 12527 15190 10059 
8335 6370 12088 9938 13878 4545 13885 2330 503 
17109 14653 17220 12067 12254 8153 15151 11039 13736 
5367 8742 12322 3629 17470 14073 7339 12354 17270 
4432 16645 5051 12315 17834 11249 2371 14416 6137 
6817 3543 14611 8014 1800 10564 3270 16439 15502 
3818 881 2657 5771 9114 15235 5210 12037 3875 
8664 9330 15778 3755 7177 47 16965 13009 6399 
14433 6588 9872 13257 3139 10061 14543 13547 12896 
1021 8224 5257 5936 17725 1473 16562 14363 10586 
2786 12694 7014 994 376 17779 117 17367 14383 
10190 12978 17129 1217 11078 15858 1676 1872 1596 
14866 4231 5260 9261 5443 11628 13273 558 12880 
2096 5302 16834 16552 6716 17433 4490 14915 10677 
4499 14462 17778 8075 13787 17601 3859 4839 2647 
14119 17518 12397 16470 2518 14118 15160 6475 14267 
711 11424 17196 9735 4208 9586 10779 14107 16214 
6981 11503 11926 9889 4769 6895 3172 300 2104 
11976 7862 8029 16761 3535 5065 968 17218 16126 
3982 9524 12042 5850 74 6297 1500 527 13013 
9945 5423 9615 9492 1076 955 14202 15095 17699 
11888 11421 10463 8631 13176 1819 222 10329 16798 
15056 5633 9925 8844 8352 15150 14956 10876 13792 
7121 141 1213 16647 8725 5230 1813 8423 6541 
3933 14017 14134 7650 5412 1804 1647 3990 5380 
1903 2788 12984 2094 8989 13817 13900 10931 14757 
6566 9674 10831 9430 14986 11031 5941 7451 13898 
12139 16877 8498 14304 16594 7858 7438 3967 10509 
8764 17094 9461 6936 8097 17286 11070 12724 1808 
9236 10992 7705 9383 829 1416 10690 7157 11676 
6104 2198 4880 11489 4835 8369 11338 9377 15141 
11914 3748 9539 8057 1751 15480 11256 9100 13419 
11283 12661 5638 7133 5310 15704 2267 15969 15752 
10665 16951 14764 6406 5559 15399 3612 918 14720 
12842 3290 15424 17545 13901 14476 7789 4792 7772 
17038 17142 16380 4388 13687 13997 9221 7288 16230 
17380 5919 16397 14759 16354 7336 14781 8787 16872 
1382 3484 883 9257 4427 10981 14573 914 444 
5508 2830 3517 6241 8013 15009 437 8666 1777 
15739 14754 14211 12851 3691 1204 146 14828 10254 
11022 11642 11631 818 14894 13388 13263 16108 13653 
10058 652 8982 9229 595 3917 15418 9626 4403 
3947 14735 17840 9435 13393 6120 11389 2806 12547 
1071 7403 9247 1317 416 4847 11901 9188 16585 
13857 2844 1508 723 3959 15279 4877 6976 16591 
1049 4165 3952 12460 12212 4365 12926 17653 17280 
16008 2664 12891 261 984 7585 440 4487 2416 
11339 9807 15838 16223 11904 6188 4126 2424 6825 
4604 11738 10493 2046 17104 15933 9620 11304 16289 
5569 16508 6129 15000 17121 1761 8807 15674 16300 
6866 11740 6700 6291 11566 3583 10864 7704 14275 
2853 4023 16617 5624 11357 2090 10014 618 12285 
10707 2626 6934 15404 3893 3260 12702 12227 6521 
11847 7872 6277 11415 3295 14752 9270 4454 2138 
1637 11323 996 8954 3985 5686 14967 7629 4622 
7790 7544 10743 2594 6097 8492 10918 16245 10528 
16850 1281 13952 17449 12157 15187 10737 2197 13458 
16664 6714 15146 5829 11871 15884 8627 5225 12443 
5573 11952 10982 4 8898 15171 1652 4849 1249 
2451 17289 5226 8220 15820 3446 3437 16846 9731 
11604 10159 16290 8420 489 11101 11750 11939 8591 
8407 11776 13626 3124 8916 1773 14680 4895 14041 
6350 3202 1633 16187 14512 585 6818 12514 15379 
15220 3862 8340 4977 13014 15433 7501 11086 17501 
1084 12014 6390 1223 15287 14471 12308 8130 6278 
13005 17311 15029 15738 10497 8709 8782 1149 3586 
12643 10778 12261 10591 5739 1257 5491 7323 5579 
16164 14057 6344 5692 17209 6646 10863 14147 3505 
16892 9125 7833 11779 5572 7779 13839 11537 6921 
13802 10852 17180 1244 10873 13450 3372 13986 2548 
3887 17126 4459 13951 8901 6005 16291 7355 6112 
10937 11217 9142 8988 14410 3784 12165 11132 11582 
11719 13679 5096 1174 15988 12175 10135 13358 2858 
5653 15695 7927 17816 13399 3616 12039 5787 598 
12711 7860 6507 1314 12605 1402 4747 17493 10972 
6340 657 4070 16408 4639 3861 2799 17374 23 
1948 2039 6811 15089 2641 14444 7241 15536 5726 
10310 4440 17835 7175 2464 12171 4589 1053 6380 
6233 5237 11689 10897 9948 2243 330 5770 13311 
4129 2401 16688 7453 8525 11663 10291 8374 7302 
9149 6980 12377 11093 4108 12767 4157 15336 16219 
6948 15882 7364 5731 14212 13607 11318 1347 10170 
8799 15806 14926 6872 4891 407 13111 17832 5907 
16676 17567 552 9581 2705 5165 14733 14532 2122 
8993 9220 14311 5142 8399 728 5339 5793 1657 
674 10148 8322 13744 10666 13191 17202 3988 1528 
1525 10907 13145 967 2302 16959 2356 532 13576 
10172 2102 6953 13315 13717 15769 2557 6941 14346 
15415 5854 14695 14808 8589 15508 13362 3633 2805 
12111 6463 1910 5069 4346 9666 16318 3292 3865 
7143 1941 2257 11303 17427 13841 2494 107 17505 
10824 8935 5304 913 353 10641 10933 15531 10966 
13241 7209 3923 6400 2581 7061 14053 11697 8040 
8964 5662 4325 10326 9549 16344 8801 6433 10739 
11968 1280 13518 16152 6208 7929 16796 7979 16520 
11757 11491 3580 5245 7155 17179 11712 15943 8448 
14610 17064 8739 14037 16785 14314 17201 9423 2583 
7905 284 551 9337 4155 333 8633 396 2085 
8949 6287 11074 10664 13364 14859 5199 17026 68 
4918 15313 2013 4398 3765 15299 3095 13906 8074 
1031 7337 1954 14591 8167 7954 11060 15465 11614 
8119 10654 13404 14280 17018 7764 11739 364 6631 
4399 16698 8712 7267 4373 1603 9351 4450 15823 
10077 10000 12209 7276 12689 17676 4698 5115 17258 
4628 14678 15518 417 15742 8314 3846 2619 1537 
17238 15429 7166 13239 1286 1679 16155 9436 14010 
4986 9520 12944 4202 1207 2239 10309 1631 12415 
5766 11960 7417 9644 13899 6131 16197 10080 15516 
6925 13395 14602 3020 3763 826 6111 6691 11743 
4003 1184 13754 7149 3119 5785 17514 4018 4865 
5028 5848 8049 5512 13690 4983 5496 7626 9715 
9839 1615 15360 5730 2970 11829 10495 15090 16039 
5241 3806 8523 2175 9262 4256 12257 15971 4603 
9266 3141 14298 365 5972 3041 15 15077 9987 
2017 7617 14560 3651 9680 1010 3027 14216 13849 
12271 17071 12012 3223 13823 3143 9681 142 8933 
1163 5923 3836 4460 11694 12998 13533 3866 14253 
5232 6614 3406 13600 4958 12570 4494 17019 1276 
14582 2446 5578 4167 11391 16805 14263 2517 5889 
3008 6842 10790 17478 10762 4444 11982 13249 8244 
1663 8788 12344 3657 10626 6889 17125 14667 13018 
1566 9108 13112 5340 8300 17809 2863 13973 697 
9146 17154 15167 12863 742 6747 11306 17722 11965 
8342 8781 11131 5833 1120 10355 16656 11250 12116 
7960 2781 8079 5673 5697 5094 1890 6174 6595 
1447 8141 8302 15676 3671 5361 16309 7218 12214 
7683 16102 15231 9308 13541 6056 1545 10658 573 
11677 10551 15963 16022 1093 8466 4062 3419 8441 
224 17337 927 2702 11984 2186 16156 15966 9070 
7446 8011 2259 13924 13598 5353 5124 6896 640 
6085 13139 10385 12521 2740 13652 9978 12736 10 
13040 13408 7963 2035 5582 971 16043 11955 15737 
12554 2234 8494 2221 17641 12483 16569 14406 15563 
4677 9553 16438 1828 13455 9638 11669 13821 4461 
6478 7622 16570 13334 2902 4693 8313 16956 1639 
4705 9982 2543 510 16072 2000 4465 2402 1685 
8673 3834 15932 7477 16226 8073 16172 15271 9276 
2293 11988 9625 5903 550 10668 317 2413 8020 
1544 13367 14883 8665 357 11096 17309 2992 4874 
6266 3153 2025 3213 4299 15815 5667 2068 1884 
2201 13465 11252 1553 11533 4057 2562 10697 10466 
14082 10264 14530 7908 6206 2531 12277 2027 4503 
14546 2611 13820 17520 4764 5808 15107 10441 11612 
7966 15247 9198 6683 8824 9380 8406 16696 2944 
4358 9273 4084 7901 17823 10365 16973 11014 12622 
4550 839 17565 15786 15624 5795 6850 265 1925 
11020 1315 9381 12083 14580 4534 4470 6769 1587 
14848 6080 6533 15908 8797 17113 2423 5250 817 
4971 17717 9654 8191 6771 1343 14183 17802 350 
16720 10823 11379 13720 6014 11204 16588 7955 14942 
4079 11106 17192 16045 1534 16668 6096 9880 5183 
15556 1766 37 6689 11262 5243 2522 2462 2045 
9432 7588 2532 17683 1225 1390 1344 14736 791 
584 1641 7767 15758 6062 8250 4649 10354 6587 
11225 7701 8738 2179 10450 17012 3641 14651 1103 
6548 8730 8999 4547 17014 11946 17640 4305 16259 
14018 13589 10898 14218 8714 8663 1083 14116 9110 
1 191 3071 17838 14332 8005 7419 13925 3844 
7592 15261 6275 17682 12787 194 16389 8437 9227 
15670 9968 13020 9324 11141 10356 1917 8805 17021 
9105 13545 5565 15872 6616 13463 7253 8206 8846 
11890 7011 9027 17394 13917 4370 298 13773 10930 
11215 1853 6202 5437 15285 17049 10621 359 8474 
9182 15388 2448 11513 10467 15524 16768 3329 1524 
8571 13575 1278 17206 4629 13961 4860 3833 1022 
6641 12312 9894 10721 17566 1798 2189 10496 6364 
10576 5336 12667 15595 5272 5887 2253 1760 17750 
8395 16369 15873 1691 9060 10652 1718 17637 8324 
13046 2719 3273 17134 1854 3662 15755 2426 12282 
10345 13094 17800 2603 13071 13574 15987 12193 286 
9153 5440 423 5626 8257 4656 16626 3993 6868 
15962 6496 6861 9494 12942 17066 7724 11911 5632 
14061 12166 12885 11581 3601 16741 11691 14623 8500 
16595 13200 3 438 16818 435 3179 9613 16264 
10229 14963 13291 9015 8934 7606 5674 9357 5724 
2363 2675 2232 207 8625 4888 10938 3712 17013 
16679 11007 16465 5868 11754 7311 14979 6136 12631 
10360 14655 8997 3500 9177 14165 10357 7478 15582 
13141 15464 3587 17522 1380 8018 13 4969 9144 
14293 11428 6685 15375 6750 17381 8774 16813 16845 
13759 13591 13510 9016 7598 15245 6191 16419 732 
7936 15446 9918 5859 11112 11792 1580 7396 8540 
809 12727 8473 2819 11015 4596 9139 12626 7918 
17115 17744 6788 11172 16784 75 3033 7080 10577 
2255 13445 13564 6682 14108 3046 17334 10806 22 
7721 9202 17087 17153 17225 4114 5910 15276 7601 
880 10075 8361 3627 9295 2666 9428 15350 15702 
11392 3839 13861 14708 5806 16488 11531 17319 6184 
15960 14516 2486 12318 341 3655 4508 15586 1549 
12182 14763 16249 13511 8657 4990 17457 3751 10294 
12248 10996 11195 4978 7575 1203 4907 15340 8129 
7380 15051 3439 7807 3349 7072 11253 7137 1737 
9305 7313 15861 14429 6737 14792 14851 580 2907 
13642 5188 1871 1795 4519 6678 15572 5629 2033 
14449 13526 8646 273 6790 4954 9856 10473 16704 
4379 1330 8831 3491 17788 5987 9338 5713 14418 
16392 1898 10613 12983 17479 12438 5073 4141 1097 
7324 15113 17609 3856 13681 13940 12255 8707 1063 
7275 7972 14272 16073 7102 3695 12188 3536 1253 
7171 11482 1284 16449 9169 6230 11103 17663 773 
11963 6016 12021 3650 15192 910 14507 3960 17728 
16517 6047 12649 4981 659 5880 10960 12798 14491 
11399 13004 6590 1605 8534 17822 11128 2870 89 
14871 8277 11247 13658 17120 14021 1929 14300 2996 
14771 6883 2910 13320 16972 7756 12793 5316 83 
16955 6728 17061 9926 15278 8976 12302 14823 14095 
13044 17849 15522 7514 8180 8722 12779 1961 5886 
17339 5870 433 1074 626 15759 12145 3128 7739 
336 10557 14964 13828 10104 11272 2875 11425 6181 
17356 11630 4537 12538 7797 1734 8016 1886 13229 
5300 7852 11244 17076 11277 14094 6064 7413 17263 
7333 9439 7144 12699 12069 12708 8560 12913 9584 
15830 10560 14494 13932 6823 16432 10299 8565 6045 
14672 4423 1859 7672 11345 8697 13190 13230 15668 
13703 10517 692 10287 9496 12015 15201 7510 13745 
8338 17472 15031 13159 87 617 10612 4518 13173 
4181 5463 8653 10775 11331 16153 1701 7673 10939 
7537 14423 7864 4195 14699 14905 5401 12620 7871 
9452 14386 9388 7448 9879 6673 15854 9697 2228 
16341 4841 6765 15401 3666 13342 5860 17511 1158 
2079 1974 14896 3055 952 8693 892 1582 12920 
7774 15394 11294 12306 1005 1618 4204 1156 16242 
16643 16437 3860 5483 11992 2573 10629 8519 13902 
7294 13309 10839 1919 7850 5514 11211 7874 3403 
13056 6962 5066 3331 15889 16977 4286 14246 2831 
6003 6643 8425 2802 6838 1399 10770 9367 16272 
4416 7746 6245 6569 15157 17219 4260 17772 16861 
1907 15222 10736 15534 17628 93 6633 15385 2993 
12218 17831 11994 3986 10042 8874 12002 5191 9287 
14451 12215 11412 1309 16276 7664 4885 10519 4061 
12647 3459 16920 4925 1865 17442 17488 11158 5198 
14630 10219 9252 10297 4710 13824 5041 16345 13167 
7695 10945 1703 11161 10236 15827 17604 12380 15931 
827 10623 17644 13406 8524 3242 10332 7207 11469 
10647 13008 7108 15119 12943 12705 8307 16321 16225 
1753 12479 13537 5966 15956 4019 7025 8304 13227 
10330 5062 11895 6642 10832 6183 12484 1362 5042 
12096 4395 3096 8802 5387 12468 3098 5603 701 
15185 8012 13023 5346 3386 17242 6991 14756 14064 
6175 3697 722 12524 8815 1781 7618 658 4119 
8069 5867 5576 11602 171 6058 3404 14025 7641 
12672 8278 4349 6654 4488 12132 13424 13439 3445 
513 10449 11523 2804 17769 1959 485 2137 11394 
16284 14262 10502 17528 15837 4774 11155 12742 11467 
4386 9506 15678 7304 9059 6383 1406 4718 14289 
3956 10166 9147 9096 6828 2928 1453 6686 12465 
54 4894 13234 10532 6348 12310 12599 11429 13671 
15697 10168 12408 6593 5313 15452 78 6751 3541 
17379 3799 10100 11595 3597 7853 4966 500 10548 
15347 10791 10418 13225 11716 4485 6249 16880 1329 
7353 13727 10660 9303 16469 2178 10064 3570 1673 
15391 12068 1697 8794 12273 14358 10858 11793 7034 
12326 7828 4047 10032 10701 9359 2743 12663 586 
17130 3291 14898 6270 1171 7627 13328 16602 2124 
1889 14220 4573 7973 14595 1607 17283 6589 15490 
10318 10358 13181 16208 10682 1785 9385 2948 17654 
3699 12065 2488 16699 14112 3201 1395 8556 11927 
4694 5741 11051 10676 109 11501 9810 9522 10726 
10195 10081 522 13459 8965 10216 10164 12556 5649 
404 4950 9887 13174 6442 11148 7625 14414 9499 
3733 6727 13252 13017 6669 7895 15878 7630 8346 
2564 16420 13959 49 2047 4422 8064 2151 1725 
7877 12321 13984 5484 12461 13542 5425 6412 1409 
3147 2838 2192 11099 15700 8568 10934 16457 3876 
12129 6550 11972 11144 11951 2793 1457 9467 5101 
12340 7715 16583 6470 3024 8814 1258 13916 4163 
11589 65 9113 13715 4021 4626 7181 5583 11696 
2205 14738 14489 16665 17614 6927 3277 4675 5052 
16347 8958 9809 16968 1950 16889 4939 16700 6226 
13414 10513 5955 15447 7427 7039 7298 14564 5767 
10456 9055 11645 2762 6388 6503 12425 16791 11434 
8736 5284 10271 14920 12048 6839 15484 11568 5874 
13330 13365 10628 7670 9232 9314 2767 15927 7301 
1327 11625 630 7887 15613 9099 11276 8635 508 
12276 4690 13683 12009 16763 5397 11190 2659 8992 
7013 16902 3145 760 12107 707 202 7633 1746 
13481 10645 7046 7845 10019 10583 2119 16881 6378 
4510 11452 315 17040 14658 15226 7604 17291 4560 
10248 8793 14461 5566 9754 1860 9975 14594 10610 
5003 4670 16414 3281 10413 13705 1479 7893 6810 
5110 2943 2176 14522 6519 8212 10765 11571 10225 
14867 13280 5700 11460 8520 6851 1198 12338 16000 
16371 16357 4915 14836 13335 16969 7058 10670 15648 
9148 1055 6010 15457 14210 11695 8868 6081 3518 
7476 5540 14839 6320 15445 13699 17353 9922 14334 
6830 648 4732 2505 10207 14049 16266 14835 17083 
11042 17302 16255 11872 14634 7392 4128 143 11936 
12447 6789 8461 3640 9251 16046 5433 8526 14093 
3767 6341 9195 9529 14128 549 6651 7473 14305 
17266 14409 2467 8861 3770 13769 3955 6323 6704 
10501 5204 8715 10681 6092 5914 8200 1264 6160 
3599 13682 1279 5479 12692 15423 1797 12872 12359 
16078 12345 11269 17756 4372 16306 2367 8654 2642 
4901 6888 7048 704 10553 10975 2731 2682 2524 
10319 12025 3149 13036 16050 5776 13359 4127 15833 
16189 9476 48 2728 7115 5950 8197 5477 13091 
10381 15289 7883 1185 2571 666 10914 7913 7104 
11118 5290 6544 14023 10231 8417 2099 1811 14185 
13897 9256 15101 17848 8110 15115 5612 15345 17695 
7215 1287 12870 17298 2554 5394 12764 16096 7869 
5607 3550 12489 9480 9930 3452 10588 13912 11958 
2441 2224 6397 8658 10053 2613 755 2521 2741 
1572 16705 7169 13147 2428 7805 12819 11285 14547 
9021 160 15561 11354 85 13888 16130 6012 7599 
165 17400 17727 1448 7730 10023 3204 15842 5164 
14592 12563 1443 7196 5197 1356 8960 6965 17591 
3649 897 9309 14231 328 5249 3619 13329 7691 
11780 7635 3889 2624 16352 9900 11980 10974 2726 
4927 6805 1444 10581 7581 7886 11030 10458 2839 
17677 5391 2892 14271 14891 12817 9921 17813 941 
5520 158 9041 1867 6432 12525 5760 3827 2896 
4933 9614 5176 825 9543 11026 13661 3448 12791 
1750 7296 673 17577 10720 4266 10004 12719 11515 
7051 8956 5894 5840 11235 6515 10792 10539 10987 
17755 6122 6746 6724 1888 474 1311 11208 11335 
1796 17673 8381 3992 104 15701 17074 2390 16974 
9002 1002 10917 5705 2861 1947 2665 3175 643 
5835 17287 11163 11325 9808 15462 35 1298 5378 
14457 4229 7761 2817 1862 12334 7832 5424 17230 
11942 14296 4798 9201 4539 13092 2381 3540 9407 
4729 14122 15998 8987 16143 14513 3325 14389 10903 
5451 1318 1209 1838 2750 8685 9757 4955 8845 
10725 1292 4610 40 7663 2222 3127 14906 15857 
4818 277 10753 9152 13964 5156 5030 1328 6932 
5177 12992 15053 4576 9795 11274 1583 13524 3944 
5984 3953 3229 5967 362 17075 7170 14569 14385 
1433 1597 7009 2530 675 80 10733 5017 8826 
15605 13363 3617 929 1335 15904 17705 4313 831 
3773 11884 8077 10956 14131 13578 13297 5485 10260 
6427 12386 7541 17530 12804 11858 9225 1957 14711 
11057 1887 12762 11430 14405 2037 7689 14576 3299 
13158 7178 13213 15794 13203 10105 8001 17250 9297 
1466 17203 9418 16727 2590 67 15475 9483 15768 
5738 11838 3231 6711 2862 17569 7621 10545 3328 
1956 394 5269 7289 12141 870 10603 12895 1665 
16133 14175 1381 9816 10663 14380 7233 590 8148 
7416 12142 8080 11230 10751 16739 4397 1270 17398 
10018 12122 633 1331 13546 1705 13314 5159 1879 
15579 14186 14682 15745 6065 15814 3603 2307 916 
11510 9636 9873 4295 3121 17152 15265 479 6161 
2515 13523 14273 16747 11850 4572 9877 10971 7105 
17808 11919 684 15986 13255 16635 8617 12550 1342 
3393 15653 15844 15811 14302 6622 3194 8863 4309 
13830 12883 8682 9825 9650 9020 1978 17588 17345 
15972 2347 9317 4148 325 16441 12133 15255 762 
16115 7083 6514 16348 9386 11317 1584 2911 1792 
13248 6476 17314 10049 12867 7484 8612 6385 3076 
6110 12516 8402 10977 16121 764 17324 9408 17340 
5537 9216 12529 16946 4960 9576 12353 15444 5193 
17350 2584 17191 12806 3937 7059 16695 6786 15027 
12980 2732 1419 1039 9850 15617 11352 4059 8476 
4995 7675 5690 7130 9164 14880 8910 33 11212 
3230 10126 15876 368 6182 10253 13956 9645 11390 
7570 6017 12319 4065 1037 519 2922 6401 4511 
11875 12449 392 17658 12958 17189 14443 2365 2717 
8068 1569 16913 13645 6134 2745 13977 10460 16507 