# vtk DataFile Version 5.1
Generated by LIGGGHTS
ASCII
DATASET POLYDATA
POINTS 17850 float
0.0205598 0.0188617 0.00232926 0.0170223 0.0211914 0.00261119 0.0166999 0.0234552 0.00279564 
0.0126675 -0.0209218 0.00230727 0.00263382 -0.0219254 0.00197542 0.000598423 -0.0197083 0.00233907 
0.00535481 -0.0207324 0.00225018 0.00415401 -0.0201473 0.00213013 0.0241609 -0.0168034 0.00223968 
0.00397311 -0.00667211 0.00187257 0.0196888 0.00626284 0.0025075 0.0225481 0.00733323 0.00211784 
0.02087 0.00858489 0.00222821 -0.0262745 0.0107679 0.00234775 -0.0238395 0.0112133 0.00240008 
-0.0261351 0.0122551 0.00217867 -0.0231981 0.0146719 0.00215018 0.000189003 0.0193262 0.00216831 
0.00397702 0.0191723 0.00204235 0.0232237 0.0179928 0.00211758 0.0190029 0.0210952 0.00246735 
0.0215281 0.0193979 0.00227977 0.0154161 0.0220344 0.00291077 0.0200877 0.0213633 0.00266022 
0.0177858 0.0220574 0.00281695 0.0162713 0.0245059 0.00262292 -0.0113744 0.0270911 0.00246937 
0.0102278 -0.0250869 0.00205887 0.0135686 -0.0251155 0.00229052 0.0128036 -0.0240163 0.00223708 
0.0153302 -0.0234119 0.00242034 0.013844 -0.0225048 0.00264692 0.00205217 -0.0235027 0.00191706 
0.0128125 -0.022551 0.00216518 0.0188988 -0.0221962 0.00243473 0.000630449 -0.0219048 0.00227699 
0.00429766 -0.0213351 0.00205249 0.00657824 -0.021831 0.00201033 0.0151294 -0.0208369 0.00243464 
-5.72095e-05 -0.0206862 0.00216429 0.00236785 -0.0193218 0.00218583 0.00698572 -0.0195388 0.00217601 
0.0221207 -0.0193975 0.00277868 -0.00042423 -0.0170566 0.00209885 0.00488343 -0.0189664 0.00204038 
0.0182178 -0.0190937 0.00250425 0.0209874 -0.0181881 0.00264388 0.0227616 -0.0186407 0.00235156 
0.000671693 -0.0176207 0.00202804 0.00397287 -0.0172786 0.00216507 0.0181019 -0.0166402 0.00228572 
0.00020247 -0.0159226 0.00206908 0.00530389 -0.0178357 0.0021149 0.0194427 -0.0161733 0.00237515 
0.00202677 -0.0160106 0.0022792 0.0171027 -0.0158906 0.00192689 0.0225811 -0.0168993 0.00270097 
-0.0141407 -0.015024 0.00211846 0.00510005 -0.0152116 0.0022616 0.020405 -0.0155656 0.00256402 
0.0225125 -0.0157711 0.00241576 0.00297429 -0.0149205 0.00211744 0.00629993 -0.0140202 0.00185497 
-0.0125104 -0.012632 0.00204593 0.0151153 -0.0133077 0.00179045 0.0206164 -0.0133599 0.00245216 
0.0251413 -0.0144445 0.00245748 0.0237514 -0.013073 0.00201354 -0.015743 -0.0128272 0.00275271 
0.00345339 -0.0127773 0.0019864 0.00723169 -0.0124693 0.00162962 0.00840052 -0.0122017 0.00208764 
0.0201474 -0.0124306 0.00206411 0.0217106 -0.0132299 0.00218064 -0.0136096 -0.0117238 0.00219665 
-0.00882095 -0.0106258 0.00209089 -0.00398068 -0.0133957 0.00223667 0.0244309 -0.0122019 0.00209265 
-0.015229 -0.0101967 0.00223286 -0.0140545 -0.010644 0.00220302 -0.0108117 -0.00948949 0.00184221 
-0.00959543 -0.00919339 0.00202208 0.0225776 -0.0105245 0.00192769 -0.0135154 -0.00755352 0.00263639 
0.0212218 -0.00938761 0.00214373 -0.00503668 -0.00915589 0.00199674 -0.000200998 -0.00944076 0.0019558 
0.00430499 -0.00808206 0.00210642 -0.0176284 -0.00585123 0.00192407 -0.00400848 -0.0061325 0.00251317 
-0.00157113 -0.00609018 0.00194836 0.00172382 -0.00636041 0.00203153 0.00303014 -0.00549409 0.00188727 
0.00201481 -0.00506121 0.00220119 0.0274021 -0.00493529 0.00190135 -0.0278288 -0.00472092 0.00280653 
-0.00133312 -0.00420499 0.00215574 -0.00297245 -0.00269268 0.00240666 0.000567039 -0.0035131 0.00193254 
-0.0117811 -0.00291346 0.00169794 0.00217239 -0.00248784 0.00188498 -0.0152367 -0.00335329 0.00207417 
-0.00926971 -0.000620519 0.00230827 0.0266391 0.000234932 0.00209999 -0.0180535 0.000155755 0.00227403 
-0.00684188 -0.000163818 0.00214365 -0.00564303 0.000536496 0.00247319 -0.0198595 0.00170263 0.00198163 
-0.016972 -5.45853e-05 0.00219526 0.0257913 0.00179483 0.00194682 -0.0140207 0.00111069 0.00225951 
-0.00960998 0.000657518 0.00218186 -0.0165063 0.00328436 0.00204541 -0.0158199 0.00421559 0.00213784 
-0.0147317 0.0042602 0.00236659 -0.00917801 0.00516652 0.00206664 0.0206707 0.00413977 0.00226348 
0.0235939 0.00384941 0.00193294 0.0257511 0.00398013 0.00194057 -0.0109416 0.00506398 0.00237527 
-0.00797506 0.00507792 0.00203484 0.0230671 0.00522038 0.00213722 -0.0120977 0.00585895 0.00211493 
-0.00901404 0.00631768 0.00225315 0.02032 0.00530346 0.00228157 0.0175651 0.00606016 0.00237734 
0.0217052 0.00657727 0.00220121 -0.0271159 0.00645258 0.00240884 0.016384 0.00642595 0.00235076 
0.0194252 0.00799258 0.00243436 0.0214925 0.00767328 0.00236853 0.0234288 0.00796334 0.00209596 
-0.026156 0.00722688 0.00223714 0.0177632 0.0085201 0.00239107 0.0231455 0.00901455 0.00225494 
0.0247222 0.00885044 0.00192817 -0.0280303 0.00863143 0.00225924 -0.0243078 0.00956472 0.00208097 
-0.0227794 0.00800782 0.00182767 0.0190884 0.0102159 0.00221921 -0.0234264 0.0101748 0.00247231 
0.0209681 0.00974449 0.0021578 0.0239103 0.0102212 0.00213333 -0.00141869 0.0112316 0.0017799 
0.0214724 0.0118355 0.0019514 -0.0254864 0.0115571 0.00273881 0.00036784 0.0113181 0.00225317 
-0.0245525 0.0122483 0.00250484 0.00165657 0.0130497 0.00219003 -0.0228951 0.0133299 0.00249391 
-0.000557409 0.0131366 0.00196779 0.000924309 0.0138942 0.00231646 0.00176114 0.0145205 0.00276985 
0.00379991 0.0140366 0.00197252 5.23334e-05 0.0161896 0.00227013 0.00327374 0.015217 0.00205246 
0.00492378 0.0155419 0.00221128 0.00607079 0.0155148 0.00233493 -0.000986405 0.0168681 0.00216329 
0.000618496 0.0174501 0.00235536 -0.000301529 0.0183695 0.00217505 0.0177844 0.0172435 0.002227 
0.021282 0.0168836 0.00212557 0.0199282 0.0178333 0.00248087 -0.000172626 0.0203574 0.00237404 
0.00622436 0.0197938 0.00227503 0.0180974 0.0187521 0.00232873 0.0211648 0.01798 0.00221714 
-0.00133656 0.0204303 0.0024296 0.0177598 0.0198816 0.00242178 0.0188137 0.0199457 0.00279008 
0.0164639 0.020208 0.00247361 0.0202327 0.020089 0.0025025 0.0144209 0.0216398 0.00264199 
-0.0091192 0.0222613 0.00173521 0.00811744 0.02279 0.00186379 0.0154208 0.0231039 0.0026988 
0.0178224 0.0231515 0.00305914 0.0027607 0.0245161 0.00185163 0.0152094 0.0245212 0.00239654 
-0.0120368 0.0260035 0.00193622 -0.00847528 0.0249151 0.00233328 -0.00640587 0.0261213 0.00218789 
0.00328542 0.0258158 0.00188476 -0.00193213 0.0256767 0.00201135 -0.000529608 0.0252494 0.00179271 
0.00594422 0.0255918 0.00205323 0.0134273 0.0250938 0.00223833 -0.0108687 0.0262363 0.00195724 
-0.00447859 0.0278683 0.00212888 0.00816989 0.0271206 0.00191612 -0.00741092 0.028464 0.00256097 
-0.00258926 0.0266296 0.00178669 -0.00127973 0.0281287 0.00177129 -7.33994e-05 0.0287746 0.00193967 
0.00791266 -0.0283393 0.00146795 0.00965937 -0.0275974 0.0017677 0.0106116 -0.0268504 0.0019566 
0.0127914 -0.0263563 0.00256959 0.00174692 -0.0250135 0.00259378 0.00690293 -0.0252102 0.0019026 
0.0145247 -0.0242677 0.00212355 0.015649 -0.0245494 0.00252515 -0.00230811 -0.0232902 0.00201273 
0.00491576 -0.024238 0.00194553 0.00803002 -0.0240938 0.00190992 0.0103182 -0.0240045 0.00235912 
0.0112937 -0.0244846 0.00217337 0.00271599 -0.024412 0.00197414 0.00462757 -0.0229257 0.00226276 
0.00596902 -0.0231683 0.0022646 0.00839533 -0.0230455 0.0019867 0.0113806 -0.0232608 0.00221189 
0.0177541 -0.0234068 0.00264426 -0.00240693 -0.0216243 0.00237819 -0.000285401 -0.0225792 0.00258365 
0.00347766 -0.0230472 0.00224438 0.0160034 -0.0214732 0.00215848 -0.00142097 -0.0208113 0.00225226 
-0.00130987 -0.0219802 0.00201968 0.00551624 -0.0219923 0.00212795 0.00817655 -0.0206541 0.00198006 
0.0107099 -0.0218014 0.00266821 0.0204138 -0.0210515 0.00246742 -0.00274677 -0.0205485 0.00197485 
0.00202407 -0.0208569 0.00215642 0.0175132 -0.0214203 0.00300547 0.0187628 -0.0210826 0.00295939 
-0.00174232 -0.0196334 0.00199377 -0.000584895 -0.0195329 0.00235719 0.00298874 -0.0202166 0.00249256 
0.00642064 -0.0208034 0.0019194 0.00832438 -0.0195847 0.00202267 0.00915425 -0.020156 0.00244871 
0.0166301 -0.0198429 0.00236712 0.0179307 -0.0201899 0.00258922 0.0211965 -0.0201069 0.00259738 
0.00121424 -0.0187364 0.00224399 0.00331145 -0.0186791 0.00225604 0.00498302 -0.0197566 0.00293774 
0.0117985 -0.0201617 0.0020782 0.016058 -0.0188475 0.00212801 0.0191086 -0.0200259 0.00257521 
0.0198181 -0.01879 0.00237418 -0.00447745 -0.0178515 0.00185326 -0.00193441 -0.0181839 0.00220673 
-0.000647837 -0.0183478 0.00228382 0.00232796 -0.0182471 0.00221083 0.00607421 -0.0185617 0.0022896 
0.00853646 -0.018389 0.00199546 0.0141388 -0.0183506 0.00236128 0.01526 -0.0179633 0.00198308 
-0.00272424 -0.0173874 0.00197079 0.002473 -0.0171538 0.00229395 0.0130026 -0.0182328 0.00200947 
0.0163545 -0.0175673 0.0024209 0.0177102 -0.0178652 0.00266813 0.0188457 -0.0180743 0.00246518 
0.0220576 -0.0178821 0.00294104 -0.0118376 -0.017174 0.00249869 -0.00534669 -0.0166226 0.00158146 
-0.00385167 -0.0169795 0.0019577 -0.00161719 -0.0169682 0.00212372 0.00328175 -0.0164037 0.00223273 
0.00852096 -0.0168967 0.00207 0.0142092 -0.0169388 0.00244675 0.023499 -0.01767 0.00226129 
-0.00244006 -0.0156834 0.00263664 -0.00090853 -0.0159137 0.00193649 0.00137736 -0.0168503 0.00198154 
0.00655019 -0.0162087 0.00210251 0.0159841 -0.0156434 0.00241689 -0.005781 -0.0146957 0.00215331 
-0.00362612 -0.0157224 0.00189288 -0.00154238 -0.0149917 0.00229834 0.0011367 -0.0152133 0.0021902 
0.00444074 -0.0161234 0.00228458 0.00629384 -0.0151039 0.00228595 0.0172352 -0.0148089 0.00250971 
0.0183512 -0.0155998 0.00224101 0.019436 -0.0148988 0.00226989 0.0212966 -0.0162037 0.00246362 
-0.0103295 -0.01453 0.0019755 -0.00483554 -0.0141185 0.00183492 0.00749352 -0.0146555 0.00205707 
0.00952657 -0.0141315 0.00174208 0.0159463 -0.014273 0.00184716 0.0183725 -0.014519 0.00235028 
0.0206177 -0.0144777 0.00231047 0.0221577 -0.0145768 0.00233347 0.0237559 -0.0158579 0.0026812 
0.0249388 -0.0155518 0.00259243 -0.0147956 -0.0138652 0.00208151 -0.0136413 -0.0137442 0.00219896 
-0.00258661 -0.013653 0.00167261 0.000323319 -0.0143326 0.00205432 0.00392229 -0.0138804 0.00253432 
0.00833396 -0.0137729 0.00210012 0.0173019 -0.0136543 0.00226496 0.00724378 -0.0134404 0.0021944 
[...]
POINT_DATA 17850
FIELD FieldData 6
id 1 17850 int
6820 9285 2175 8172 9887 11694 13436 13205 17464 
17767 3960 11247 3580 1833 4324 5339 14904 6903 
10647 5198 17220 12088 5780 7149 4019 16402 16039 
9249 10102 11677 15563 6472 11724 10658 4509 1950 
12355 12554 16156 7451 15927 6234 5001 6850 1739 
10 2377 6393 4666 3637 4163 5919 5230 13900 
7332 9377 9012 829 4867 8999 13109 13599 12139 
9182 10271 12078 17144 5703 666 4971 12130 1804 
4560 8571 5569 12460 10483 350 3917 4391 10209 
5707 4601 2999 1524 1149 16374 13806 11237 2780 
1794 275 4699 3992 6861 1774 2439 17788 5831 
7724 4013 17087 929 10646 9258 17225 12337 11342 
17530 7934 9428 67 4379 15113 15653 12895 6089 
10278 1956 6840 1337 13809 4655 3076 7234 7209 
8338 7175 16714 17231 16946 4188 4295 8471 10939 
11712 1929 10599 12251 17018 9636 15527 13647 14681 
16351 2875 9717 15988 885 15069 12002 15518 8519 
4755 2512 15803 12684 7567 16555 5548 4865 13153 
17596 4262 5906 10055 1207 14428 11308 6003 12472 
2873 15956 5346 12615 17273 14936 9235 2372 11155 
17056 1753 8557 6173 946 6211 4928 3629 15608 
1362 6509 11743 11938 1573 13613 3870 13273 697 
13257 2047 10355 711 2221 14755 5453 17641 15177 
16798 10442 7338 2351 11099 14863 3144 10122 17255 
15052 15447 12425 15786 2789 10308 12736 6927 1441 
14715 13559 7919 1685 9809 2165 12716 12005 9340 
7427 5633 1176 8917 599 6908 17614 15570 9884 
16670 17142 4950 1238 16623 12495 9361 14406 14184 
7437 14138 16877 16320 7446 9855 8352 10319 9625 
9456 9832 5761 17016 9092 5842 12001 3109 6804 
9429 6457 6740 16079 13419 1344 1836 4180 8450 
12107 16707 17739 8663 11676 1647 317 8369 8730 
8635 13393 14377 15141 16230 1204 12574 13543 14772 
968 8989 7622 13820 9103 6039 4711 15474 11508 
8437 12872 444 17094 7893 12443 3599 2522 146 
16266 15388 12312 3767 12277 8336 4006 15404 16257 
8487 5645 13020 5795 3768 11452 10245 11191 11070 
16188 15115 1691 861 6309 10467 14759 3834 16424 
727 1317 14275 7179 12320 12285 4547 6805 16289 
11304 7599 165 12697 4365 11283 6350 15701 15582 
6291 5526 12926 12109 11738 15234 16591 911 14806 
4126 9494 5391 15586 6712 3583 261 2441 11430 
15237 6521 579 17501 5623 7501 8553 1947 12175 
4849 11399 3895 16286 7214 4611 5598 16750 12126 
5164 6750 16290 2014 11274 13595 16143 10597 11102 
17646 10341 5553 4888 3191 6496 7385 10135 4114 
17826 1549 17153 7657 16948 10577 11009 12047 3491 
15572 13314 13799 2921 4296 8129 1331 5653 8525 
12718 5738 17434 17440 16922 13297 7564 13385 874 
13358 17052 13523 16747 17061 13957 10294 12381 9801 
3343 13546 15885 6110 12774 11112 5821 8875 9418 
1347 12516 6874 3603 16916 15152 15029 13607 325 
9208 12372 15278 159 7739 10639 9169 674 4596 
4519 7652 17588 17235 12522 12529 8425 10175 14695 
8699 4194 16913 13645 1919 11473 7420 1686 7510 
6049 407 17644 8037 17345 6208 9417 5245 9602 
11530 11412 10104 9134 16454 14300 1910 14067 15685 
16853 13309 7337 17179 2802 12689 11463 11920 6596 
7294 15313 7398 9164 6203 3088 15854 14731 12820 
15103 17263 13576 6681 7906 468 4243 1859 12647 
12464 11491 10516 9351 15535 12194 7502 14239 17617 
11659 1754 9004 9278 10420 3860 5896 94 3555 
2247 17676 8675 3403 13714 13167 1515 13084 13920 
16155 3135 10709 2661 10031 14052 6239 8119 13008 
12096 4871 11528 3096 6311 5393 17442 9566 11992 
11614 5849 16985 13052 958 12943 7824 3119 5547 
8712 6354 12382 15564 17093 6962 13762 16152 9360 
17753 16167 9081 11054 9431 966 15435 17630 5461 
7325 14947 787 2244 7118 13754 3521 17436 11082 
12914 9096 17833 6791 5846 10112 3769 13854 688 
12781 12956 5730 16299 1744 12100 14010 12257 5076 
16462 5710 4778 13016 2162 17642 2238 9591 3934 
476 5871 1610 5515 896 10005 12054 14687 16272 
4570 5442 12247 5297 10147 1243 12459 9903 13730 
15621 5576 8375 10155 1568 6828 8480 11759 3749 
15338 15623 13492 3489 4466 7331 5228 5456 6952 
3515 4429 8224 9681 14915 17129 6588 10100 3291 
16562 3270 2518 7496 11219 14595 5824 11142 6494 
15676 12978 10726 14267 10064 16214 4494 10418 4340 
9056 10195 404 9330 11628 7715 12790 7625 3671 
9070 17125 16192 2192 5794 7932 16665 4461 11955 
5101 5443 15293 15500 11043 15484 1258 12262 13143 
4361 4874 8052 217 4206 14743 6465 10498 10445 
6072 3674 16781 11753 1819 16382 16395 1285 13721 
6475 13887 14501 11568 1565 4490 6478 9100 11371 
8344 6261 10847 3880 16734 13188 16457 12340 6206 
5757 4976 915 10769 17422 13366 7999 16594 17433 
10264 2402 2699 6848 13371 4178 7945 10492 17701 
13421 6745 12009 2408 17309 11988 4441 11503 16226 
5955 1023 10959 14725 11533 7596 1327 9273 11276 
16254 12172 11338 6011 14345 16253 16436 2045 10697 
11890 1076 5397 5085 16380 4671 8787 9193 8272 
16973 13589 5559 9485 7966 5941 14704 15243 8423 
4503 9064 1049 2462 14828 16202 16474 7428 16583 
6810 10103 15595 8855 10584 6014 4732 7253 3105 
9482 5103 11645 10721 3756 16700 4939 6297 13337 
6198 6800 6277 13071 16319 868 17264 11259 10555 
2234 15095 15009 15267 1811 5961 16259 14166 3640 
17513 12212 8783 8777 3990 9324 8598 3601 9529 
1854 7392 9518 14193 10621 14749 15247 9041 16570 
6541 11888 12056 8428 1651 3691 5433 16585 8997 
5403 11106 16245 8625 8654 8463 15512 14106 6769 
15961 3784 11539 2428 9925 8500 9021 4927 17723 
647 423 7169 191 6548 8516 6776 17755 4860 
17049 2594 5372 6052 1298 413 13925 5477 5310 
17334 13961 3833 9968 1572 8261 1062 17074 158 
2240 11853 8591 8982 2215 11253 7761 6390 13263 
14185 9105 11007 3862 7883 12674 11780 14283 11795 
342 15303 1960 7860 10725 16369 9778 3540 17480 
14513 5573 2998 8593 8415 475 6678 10384 7270 
100 11389 8340 2451 104 14054 5530 3448 16818 
10852 13096 1494 7888 10159 13757 14296 11745 673 
7544 6299 7744 9016 3839 13453 8401 12572 11750 
8826 1244 16264 4632 12762 17456 4800 15287 14793 
4610 14129 3542 14963 2977 1948 12776 17216 362 
7577 7690 12957 15263 2750 13158 12386 15220 11930 
11475 11326 7170 13590 4313 14763 13738 8195 1898 
11550 17645 12039 6523 4576 3899 12318 1466 10018 
1871 479 11217 13744 7907 7807 15579 13951 13203 
1097 17374 5692 7380 9483 12659 5629 14302 14507 
529 10503 17089 16661 80 16739 12444 870 16704 
12804 1705 3563 5987 13760 11179 10897 8918 3121 
17203 12122 7603 2590 1961 15844 14273 11540 10972 
16408 6932 3328 4139 4639 8001 8785 11916 4148 
3617 17239 14576 4173 17319 2715 12141 15054 5084 
14978 3302 7952 2039 3439 5059 1618 8661 11292 
5642 16287 2464 10561 7742 9083 2953 11103 13320 
13004 773 17075 6017 14311 14855 9650 7324 14430 
11504 6666 6953 6892 10326 9617 14287 13255 9355 
1576 4129 7172 17609 6578 7943 10907 5854 9825 
5142 14212 8458 15481 15522 8180 8884 7059 6590 
14981 14859 4204 9386 7276 3948 10473 8580 13217 
10136 16858 4589 9474 2102 201 11074 8121 13877 
7463 17191 5216 2347 8991 9527 5945 11086 1734 
7361 17050 7155 8433 15986 12375 4902 4065 17314 
12798 10960 7413 7773 9317 2833 6181 2583 2947 
3176 7381 11158 11317 2220 4423 16443 5770 8345 
16138 15934 3912 12699 3356 9917 12538 14494 8752 
270 13311 10148 17567 2435 14214 3937 13025 9779 
4325 12678 9512 2242 17825 355 4960 364 13828 
10739 4140 17342 531 13241 9414 11885 374 7686 
2271 8653 2717 3793 16171 9337 14246 13198 12797 
17697 5567 8697 14880 9863 14301 4861 17672 551 
2831 13373 2258 6449 9689 140 8258 9388 2365 
13239 15830 13372 4407 5966 3604 17625 3212 12370 
6468 11733 4824 4200 7384 15562 2436 11441 1679 
5766 8382 12067 6532 8307 17592 8910 9465 6164 
4373 10605 4987 3120 11739 1121 8620 17241 2692 
14827 4808 8156 12944 3254 17488 4555 2801 17070 
451 13274 13937 13700 636 5041 12367 11611 7764 
1954 13289 9367 12920 14833 6318 7746 6303 4701 
3459 2592 11644 15931 9287 8639 469 7526 4912 
3370 3044 5062 6647 15599 6490 2588 10145 1603 
13065 9252 13056 6385 11697 91 17836 5512 5525 
14770 11960 9349 7166 730 8865 10215 6108 2239 
5812 6147 9289 3373 11105 3924 17527 13758 9783 
1638 4055 8304 16335 1719 4710 8357 799 6672 
8744 10107 11265 11119 11023 6192 2865 16177 15678 
11829 11711 4846 13279 15614 11627 629 15249 17112 
4457 2970 17008 12254 17082 2993 1622 6254 12677 
954 4603 15644 16197 847 6940 16499 305 7339 
10309 15185 778 6679 11990 5862 7741 14233 396 
15920 3847 12324 801 13382 11648 17674 4400 17517 
17284 1615 513 3238 3605 574 8 2816 6140 
5687 4590 15045 2895 3454 17199 5571 5258 3672 
2517 3008 8302 1021 3543 3143 12065 4573 12153 
14118 12998 775 5486 12315 17402 13225 2104 930 
6137 15077 1473 6593 10677 6981 17019 12397 16647 
14667 8904 5078 3528 9978 9615 9341 11864 13667 
3646 5246 13598 12012 3651 8725 14642 5507 13174 
7884 17636 6470 17699 12042 10795 13176 8141 586 
10858 724 14738 13099 5954 12204 10834 2488 10790 
2883 11450 8841 13652 11746 11576 8133 15622 7877 
15700 14866 11720 16968 2553 5539 13010 10081 4318 
9217 12321 8631 5833 2830 5260 5903 12245 2824 
1711 8844 8179 11721 2218 11397 15271 2293 8346 
17162 6836 12137 2024 17028 16370 5187 1938 1075 
17067 1544 6839 3535 12556 10626 6675 7301 3943 
6329 16159 2447 14798 2289 2068 4472 17165 12327 
12904 13821 4738 6797 11975 5853 2475 5747 6847 
17080 6226 15932 15424 17286 10477 4847 6323 6895 
9467 6503 17412 8551 8373 4744 4693 10513 8313 
8885 11447 12621 5362 12851 2762 6704 1083 4758 
16043 8139 4672 8316 7363 6266 17218 5850 13817 
13916 9099 5874 9971 16396 11914 9221 9257 9889 
15107 5508 5412 4465 16881 7481 8609 11028 2109 
10837 12483 9552 16918 9247 8808 10665 7670 3379 
10698 16889 1026 12984 9046 8892 17670 1766 5891 
6702 10365 16305 8797 2119 1 11556 14030 3868 
9524 16104 9005 2316 1752 14049 1751 7058 10509 
14530 17038 7998 3911 4422 630 2198 5275 7039 
1895 14158 3497 5222 2704 9229 10670 10583 14093 
13036 10346 16925 2027 12590 10934 1813 14489 5638 
6488 6437 17210 1463 260 7901 3748 8461 11204 
14789 9432 17113 13426 6172 3290 1479 15556 1520 
5280 17640 1860 16078 914 17380 9654 10078 10014 
10668 13713 1078 7524 3844 3239 1036 359 1022 
1987 3955 14923 16274 10450 11434 3273 8824 13286 
696 10975 4643 4023 16951 6188 9188 8988 17566 
4372 17462 5760 6866 14580 7133 12293 7592 1071 
7016 12692 10435 4877 16224 9035 13397 17192 3415 
5950 8197 883 1797 7403 16114 10743 14843 9227 
7598 16327 15674 7137 7767 5421 16108 13699 14471 
12547 15987 17770 3849 15615 13695 1614 11787 16741 
1761 2363 1798 11285 11779 5540 820 7621 14735 
13388 11229 11566 5686 12787 11339 11958 11481 2287 
7215 4696 13773 1281 3893 440 6616 3175 4629 
11299 12040 6646 15998 13329 4421 3505 9908 1531 
797 6685 9305 11323 11980 4274 2099 15561 12008 
7629 11101 11754 6965 1879 5626 35 9907 13097 
6191 14444 15982 15842 3550 2046 15279 2253 16082 
5111 12308 17742 2907 6977 1887 3372 15245 12928 
16706 6625 7340 15820 9970 11991 5705 6818 15187 
6122 9613 1235 8987 1740 16868 16249 14380 675 
5495 4 14822 15171 15904 16355 134 12143 7242 
1340 1862 17522 2527 6506 1292 22 10737 8960 
12626 13450 10360 7168 6980 6582 6919 14512 9503 
4907 2486 1249 8473 16727 9338 14147 2368 259 
3773 3325 17744 9958 6543 11952 13141 11531 10982 
13802 15199 6278 6344 4009 13 6417 11335 6701 
144 14122 5920 10923 6127 17816 10127 15680 15375 
9332 13200 5929 7261 5236 11858 7918 17115 10878 
12840 655 7972 2255 14860 9297 2666 9898 6535 
12906 14455 10334 5791 9980 8956 16375 9770 12253 
13445 14967 10462 14534 3953 633 11057 12899 5063 
1226 1561 280 7008 4108 11108 2976 9183 16116 
17106 1203 17250 9023 9202 502 3878 7409 9190 
3856 4166 14 4572 7891 2037 9267 17731 16488 
13578 6921 17794 12017 12636 632 6161 14078 3888 
16133 8782 11392 232 7718 4235 17651 15812 8685 
5424 11999 8096 9701 7579 6098 16441 13793 10524 
17663 1924 14235 12651 7178 10405 16301 5269 1539 
7985 13110 12030 2908 5452 7453 5627 9362 9275 
2412 2471 289 13511 2326 11689 5932 6790 255 
9790 3695 13213 15112 11403 3355 2858 1314 23 
8831 2515 15087 16483 2646 1605 12255 16460 9394 
4891 14821 7779 8080 7171 1270 6662 17398 4605 
3227 10844 17477 16486 9746 6711 9215 9020 14792 
17810 2799 17073 1135 11321 12469 7763 12779 4447 
6786 9581 9142 12182 11919 11003 6615 4751 17681 
5300 13362 6047 6427 3085 3709 6608 16036 16291 
12171 2146 10776 11318 11949 9286 83 1063 12145 
16476 14378 2560 11261 14303 6744 17728 15108 11482 
10814 1284 3313 6883 11180 16827 33 15923 12133 
14532 6872 11331 16993 3377 7920 7676 8277 2745 
4157 13145 5390 6885 3792 8577 8758 10291 9149 
4286 13064 10427 1513 13724 17026 1941 2718 1156 
1309 15336 8617 9568 330 17777 4315 6327 4761 
4747 10664 10141 14569 3483 16153 12511 6568 13745 
2257 5785 15172 13386 17849 7130 6077 17187 4554 
7472 16040 1495 13173 641 4105 17529 7374 16519 
15705 10017 3788 3634 3913 13190 10782 15744 433 
6765 4478 16954 13694 3678 15213 6379 10839 12319 
17835 16449 14699 2401 16939 3035 12451 8483 9584 
4595 11729 4433 17098 7500 8642 68 1378 9590 
17832 5270 3134 9828 8858 8656 12655 6673 2122 
6142 15926 16002 1907 5957 503 10623 4152 16507 
5345 1657 2606 5990 7040 9452 16536 3865 4418 
5342 9714 15590 12811 14280 6331 3998 729 5401 
836 7664 93 12176 16141 2482 3905 8560 11212 
16337 12470 5199 17294 1139 16548 16514 10021 11596 
14901 4952 10770 7643 7848 11425 15970 16891 4577 
14443 7285 5191 7475 9399 6768 15585 16450 6093 
1865 6631 2353 11794 1974 8693 13518 4518 12149 
10438 15889 15283 2282 14371 14988 9995 14630 12111 
7874 7390 8376 7522 3269 7434 6656 8897 6375 
15606 2400 5993 7611 12294 4347 1280 1916 9057 
8926 2172 7540 6441 11706 12707 17072 14451 15240 
4909 7237 4468 14659 10219 15385 5218 3846 10199 
12908 14528 4842 3908 12600 1529 7854 4354 16861 
9107 14734 14025 7755 17064 17101 8524 3663 7774 
9859 10952 13378 9909 3853 4436 9436 14161 8935 
902 8033 3779 16262 310 125 14932 12705 17041 
8314 17631 14840 11797 15299 13407 4615 2978 5411 
10000 8411 262 6717 9946 15120 10502 4317 7264 
4908 5450 3359 17258 13614 6413 4416 8542 4260 
7142 2701 3408 11109 6985 15516 5830 417 2599 
16225 5762 8739 5220 628 3848 2196 7827 11039 
8049 5132 1586 7417 5603 6128 5644 15827 15308 
5628 12639 471 14139 17716 2533 11175 689 5728 
6607 12231 3386 8802 11667 12524 7954 620 10013 
10110 1858 15483 2480 5820 5130 4640 8968 11895 
4339 9403 808 9453 15026 13059 15456 3068 9425 
3081 14256 8069 920 3275 2085 356 12484 17219 
10552 17393 16523 17117 17470 13395 7618 1446 3496 
361 13002 11843 14995 14262 11523 10794 8815 372 
4774 5241 3838 4319 244 14750 8053 11471 10803 
7517 17689 889 6252 139 13021 12730 1896 6124 
882 6554 15837 16284 13982 13086 10935 8838 15059 
9905 11018 917 11407 11766 4399 9676 9358 1427 
5277 15454 6216 12968 16652 11559 15697 14117 5679 
13340 15665 3027 8664 5889 2186 11899 6412 10168 
7973 9108 11249 10216 12676 14383 881 3559 2446 
11808 11579 11953 5212 2966 16469 12612 3021 11806 
6751 12310 4526 15502 13383 852 14898 5079 2151 
13018 17778 13924 2852 8029 4863 10010 17654 17138 
4717 14368 8238 1217 5697 9875 13600 1082 5725 
3699 6250 1541 5074 4499 8075 558 2035 16645 
17367 2702 12663 4716 10997 14419 8064 6727 16046 
14388 3859 4405 14107 16761 2499 11410 5949 14703 
2575 7949 12453 16309 13040 11484 10203 11358 222 
6896 15480 5065 12521 11077 13898 7106 5712 13030 
16434 406 6442 7960 10992 297 11859 17722 2216 
11062 4687 4241 17321 1756 13210 1069 14328 16657 
11144 12025 13455 4231 2992 11031 12520 9690 17036 
9130 14266 4273 11995 5140 12502 1471 707 6231 
508 6566 5005 3885 16470 8837 5519 1699 5534 
7533 11665 7165 14103 16956 2537 16198 13303 3876 
3994 4240 15994 595 8222 2543 8781 14481 10385 
8160 5429 10619 7991 8673 13105 15491 9922 4165 
16139 5838 12097 14764 10690 550 15853 12124 2988 
16754 11564 11584 7288 10225 5038 9744 7912 2572 
5801 1354 9510 6378 5749 977 13656 11767 16606 
8814 10500 9334 16357 17839 15990 14883 8665 11364 
7121 5750 16887 332 13995 10718 9923 15996 3933 
8097 15966 16199 6272 2700 9824 13335 2267 322 
17565 141 6388 5003 17411 3752 7432 15356 13710 
14202 14856 6435 8145 8020 15767 4305 2759 4690 
7511 4792 14986 15624 11685 13623 74 7477 12048 
765 17405 11962 13787 4534 4084 12517 10981 6789 
8057 453 6080 1018 7955 2532 9430 8236 2423 
17683 8715 4079 9664 16126 6936 10339 5861 5783 
14476 4550 1277 7772 13857 6807 4510 8394 10296 
14834 16354 14720 1903 2788 4358 12083 12972 4071 
2678 4128 14143 11262 194 4917 9420 16588 9975 
14588 1225 942 6894 4077 6684 15183 11190 15833 
2500 1783 10787 16052 15423 7116 14018 10914 7788 
1138 14011 10702 3281 15399 1925 16371 13926 10351 
16678 17116 4130 2417 5267 652 13463 16223 12359 
17558 9037 10681 265 11396 4674 12842 14658 16872 
13682 8070 6689 10592 16389 15838 17428 8714 340 
7913 14736 14210 6851 11642 10478 5358 2844 1315 
6683 2094 17656 16952 143 9807 14211 717 11558 
13769 10720 3952 15000 16963 9027 7104 13147 17302 
2413 8498 939 8729 1764 11087 3046 7462 5612 
2448 9616 2317 277 12885 7635 13917 5520 11581 
16850 5225 7419 16196 10699 6978 2265 17168 15715 
2613 4348 7593 3174 6232 618 11172 5724 13687 
10707 2800 37 12942 4798 9607 6976 4807 14979 
2256 7691 2554 14453 2787 1867 732 12316 16008 
12014 2530 14894 6934 160 13545 4406 6012 15433 
5956 2658 17275 15459 13448 3985 12537 17704 5835 
8130 7733 1870 7634 17727 11286 1161 8324 17813 
2333 2675 6788 13764 10357 9804 6915 2637 7790 
15857 6773 12261 14909 3817 17104 3091 7585 15933 
16465 2603 10969 7872 2571 4445 10666 11742 6637 
888 3525 11618 8573 13266 3231 4990 3910 15445 
4582 3 16679 14108 11030 9795 1652 4969 13574 
2212 15350 4104 13554 14893 9449 7927 5910 12604 
1773 5739 1223 5511 15755 11730 9614 16498 13054 
8898 8018 17577 13458 5992 15991 8220 7553 4818 
13444 17223 1084 3751 15228 7478 5299 4303 11026 
643 7721 10229 11847 10873 14016 17543 4729 11905 
4501 8657 8707 11884 75 335 5695 12154 438 
17381 1380 13642 17465 17289 2856 1335 1133 2538 
2832 14376 812 7072 16419 7275 2870 7849 1077 
15575 17230 9543 13634 7377 1301 6852 5017 14057 
10937 3467 1829 3805 10874 17002 12350 6876 11565 
657 15814 13861 273 17621 7140 11773 15411 10938 
12393 7615 6507 17227 3944 1795 6112 4482 15725 
17276 17260 1019 14272 5859 2307 14131 5376 11732 
11439 16689 809 6053 15340 16994 15605 8614 6285 
869 1628 16824 687 17771 8148 11883 16073 11458 
13184 3358 2335 12768 15736 17180 8574 10559 4508 
6230 1665 1125 13137 2813 11196 5872 2548 15503 
1675 14886 11713 9849 5556 10760 5177 12582 8947 
8833 14167 2754 9627 16841 12086 14385 14405 2862 
6551 16857 14029 12658 1886 4459 1246 13561 4992 
2493 42 3486 7289 15227 1342 15265 14900 9246 
16477 747 11863 8628 7756 15130 11963 9061 5822 
14115 5557 7105 7416 5133 12715 6849 12792 5787 
5096 9342 17152 3743 7355 16117 1827 5430 4201 
17705 71 12740 14758 15759 7688 684 7241 16392 
14567 8703 14842 17479 659 4397 12711 3861 2674 
2169 15688 1267 5215 9733 14351 13456 17356 15475 
5983 831 4467 17361 4164 833 8016 16005 17578 
3536 916 13111 3627 1174 4968 12269 5651 10826 
8187 15949 2308 14290 16559 13996 15692 1402 17493 
6811 6065 15905 11925 13658 7102 15536 10105 11506 
5426 4056 5099 17547 4394 6705 5159 4638 6273 
590 13932 9220 1577 8976 16219 12248 6948 14808 
12550 14771 14491 15906 12852 4953 16926 2708 10283 
12449 13432 6016 1381 12801 1863 7905 16348 16333 
2796 15415 9850 9926 3920 5963 13044 3393 16031 
17178 16688 11048 2705 17623 1946 17808 15806 17265 
14889 4741 1584 11303 17076 14043 11875 13325 8722 
8002 5811 3490 16886 13689 15611 7306 16173 15080 
10288 15222 4918 10049 1142 5880 13166 13555 7628 
10008 4426 10094 2748 8713 8964 7302 4537 2228 
3348 17059 16999 3689 726 3156 1464 6823 8270 
7587 6739 12806 12966 9197 6300 11630 1528 7797 
11774 1569 2114 16600 3045 10241 8205 11345 5690 
532 7609 2442 11763 10909 16440 913 7144 11924 
284 15192 9496 3455 17103 14702 6643 6051 16344 
6005 2127 5731 2805 16676 13913 8849 16009 1517 
7669 16928 1729 17201 10629 13346 6966 16481 2284 
5457 16756 3039 5524 9663 2066 12215 4511 1778 
5476 9439 15542 2481 546 16520 1031 10933 5174 
6941 9673 8095 14027 11387 15135 5793 6463 107 
1620 7010 7200 8350 9382 5463 9423 6538 2639 
9697 3289 12691 2393 17713 1263 16288 15384 2996 
3055 3413 13469 2910 13326 14386 14652 2573 851 
16503 11804 5089 17772 5953 16531 6284 15209 7061 
12527 4398 15529 16538 5077 4356 10986 13719 9178 