# vtk DataFile Version 5.1
Generated by LIGGGHTS
ASCII
DATASET POLYDATA
POINTS 17850 float
-0.0245036 -0.00198592 0.00157077 -0.0279642 0.00922978 0.00167948 0.00187513 -0.0290235 0.00167118 
0.00321299 -0.0285444 0.0017402 0.00215061 -0.0269799 0.00187541 -0.00862567 -0.0237024 0.00168286 
-0.010144 -0.0204945 0.00159454 0.00210783 -0.0207308 0.00166103 -0.00737488 -0.0199551 0.00163184 
-0.0064748 -0.0207662 0.00158389 0.000338861 -0.022607 0.00195044 -0.00997189 -0.0194017 0.00163268 
0.000651449 -0.0188557 0.0016899 0.0183685 -0.0191334 0.00195063 -0.0085493 -0.0177746 0.00157517 
-0.00793791 -0.0187564 0.00161196 -0.00673666 -0.0188475 0.00163824 -0.00448826 -0.0190583 0.00161873 
0.00308959 -0.0187637 0.00157711 0.00412065 -0.0184422 0.00162993 0.000907902 -0.0177135 0.00162494 
-0.000478064 -0.0167869 0.00164456 0.00203165 -0.0171948 0.00159965 0.00316205 -0.0170965 0.00166011 
0.0199575 -0.0162635 0.00208656 0.00184257 -0.0160398 0.00166417 0.00441928 -0.016007 0.00163468 
0.000172467 -0.0158618 0.00159056 0.00310658 -0.013954 0.00162967 0.00188096 -0.0139566 0.00163223 
0.00684013 -0.0132899 0.00159673 -0.0264057 -0.0119278 0.00161489 -0.020233 -0.0117328 0.0016621 
0.00437582 -0.0122721 0.00163902 0.00587937 -0.0127968 0.00175102 0.00109641 -0.0121273 0.00176322 
0.00777563 -0.0125384 0.00171417 0.0103447 -0.0115855 0.00164554 0.004216 -0.0110887 0.00161884 
0.00642848 -0.0117092 0.00163435 0.00804941 -0.0108011 0.001615 0.00914952 -0.0111008 0.0016242 
-0.0267732 -0.00973176 0.00161702 -0.0254031 -0.00965116 0.00158356 0.00410806 -0.0099025 0.0015769 
0.0104015 -0.0100712 0.00167885 0.0144926 -0.00999463 0.001571 0.0173146 -0.0102061 0.00160981 
0.0083482 -0.00934943 0.00161586 0.0119962 -0.00855609 0.00165194 0.015487 -0.00972657 0.00159422 
0.0192047 -0.00875696 0.00162646 -0.0177591 -0.00799845 0.00156896 0.00752497 -0.00860004 0.00161168 
0.00888258 -0.008298 0.00165206 0.0138808 -0.00789457 0.00158144 -0.0278456 -0.00756745 0.00161017 
-0.0151687 -0.00739879 0.00161637 0.0107604 -0.00720741 0.00161627 0.0159179 -0.00870015 0.00164254 
0.0179758 -0.00822417 0.00162568 -0.0255722 -0.00585848 0.00155399 0.0091109 -0.00585695 0.00160889 
0.0118232 -0.00670724 0.00160604 0.0168262 -0.00791588 0.00161678 0.0223915 -0.00730132 0.00173862 
-0.0185594 -0.00589947 0.00159518 -0.0176802 -0.0065 0.0015821 0.00584396 -0.00570761 0.00162835 
0.00805163 -0.00642389 0.00160205 0.0128466 -0.00761909 0.00159338 0.0189868 -0.00558432 0.00166018 
0.020043 -0.00681527 0.00162833 0.0274375 -0.00653032 0.00166458 -0.0287636 -0.00559736 0.00164261 
-0.0228802 -0.00538126 0.0016288 -0.0202064 -0.00564718 0.00160121 -0.018409 -0.00429933 0.00164919 
-0.0165876 -0.00563342 0.00162652 -0.0154958 -0.00568795 0.00156722 0.0149256 -0.0054676 0.00158654 
0.0166412 -0.00613355 0.00163078 -0.0266433 -0.00549246 0.00166007 -0.0219302 -0.00476624 0.00162175 
-0.0206147 -0.00457034 0.0015924 0.00579946 -0.00444028 0.00184601 0.00703196 -0.00494458 0.0016106 
0.0164126 -0.00467644 0.0016559 0.0180008 -0.00479943 0.00163192 0.019918 -0.00494035 0.00163168 
0.0237328 -0.00470359 0.00167306 0.0252749 -0.00490171 0.00159368 0.02832 -0.00567453 0.00173753 
-0.0220665 -0.00359685 0.00162365 -0.0194637 -0.00320195 0.00163464 -0.0175873 -0.00329538 0.00167039 
0.00460335 -0.00456334 0.00158392 0.00799004 -0.00383012 0.00164583 0.0117746 -0.00460361 0.00161446 
0.0285768 -0.00429876 0.00162605 -0.0284559 -0.00366114 0.00162674 -0.0128771 -0.00328871 0.00156571 
0.00902248 -0.00359197 0.00157504 0.0168396 -0.00268918 0.00163276 0.0199916 -0.00388341 0.0016109 
-0.0275922 -0.00280067 0.00166888 -0.0198774 -0.00215307 0.00158002 -0.0189084 -0.00157702 0.00158804 
0.00953914 -0.00236547 0.00157571 0.0145165 -0.00260552 0.00156972 0.0277053 -0.00244429 0.00165582 
-0.0234701 -0.00216405 0.00159727 -0.0151725 -0.00235184 0.00162631 -0.0141672 -0.00184518 0.00161815 
-0.0124587 -0.00157256 0.00162191 0.0145672 -0.00156395 0.00156108 0.0178277 -0.00171187 0.00160726 
-0.0291911 -0.00226532 0.00158413 -0.0140804 -0.00077761 0.00157362 -0.0112207 -0.000460198 0.00161728 
-0.000322861 -0.00178778 0.00198966 -0.0227435 -0.000921772 0.00161717 -0.0119404 0.00091456 0.00158848 
-0.010525 0.000907942 0.00161527 -0.00855247 0.000236326 0.00173619 0.0136788 -2.89301e-06 0.00158205 
0.0166534 -0.00088949 0.00159705 -0.0177367 -0.000172864 0.00161077 -0.0074288 0.000356333 0.00180288 
0.0170496 0.000782856 0.00162665 0.0294119 -0.000159774 0.00161667 -0.0241186 0.000402714 0.0015631 
-0.01629 0.000575742 0.00165749 -0.0102354 0.00299368 0.0015564 -0.0044362 0.0020324 0.00162971 
0.000587689 0.00125278 0.00168096 0.0187963 0.000112927 0.00157361 0.0230007 0.00134003 0.00160201 
-0.0276424 0.00131605 0.00160634 -0.0148006 0.00198514 0.00163985 0.0208779 0.00143683 0.0016128 
0.0231918 0.00253951 0.00162012 -0.0289754 0.00236997 0.00163856 -0.0159026 0.00170497 0.00159757 
0.0158813 0.00224931 0.00175182 0.0292304 0.00234083 0.00161063 -0.0281146 0.00320435 0.00160401 
-0.0247379 0.00279112 0.00161963 -0.01698 0.00231824 0.00169933 -0.00550611 0.00428626 0.00164908 
-0.000348243 0.00360586 0.00158569 0.0200314 0.00297967 0.00162758 0.0239324 0.00390656 0.00162749 
0.0249618 0.00352395 0.0015825 0.0274277 0.00327852 0.00166176 -0.025815 0.00315448 0.00163467 
-0.0234448 0.00323674 0.00156017 -0.0172013 0.00338595 0.00159493 -0.00457965 0.00511764 0.00160065 
0.0136188 0.00358042 0.00165545 0.0159962 0.00388744 0.00164872 0.0255179 0.00443459 0.00160574 
0.0291906 0.00376247 0.0015826 -0.0285695 0.00437803 0.00157081 -0.0254241 0.00511143 0.0015861 
-0.0163228 0.00530059 0.00158624 -0.00909426 0.00449543 0.00161771 -0.0232991 0.00558588 0.00156438 
-0.00652478 0.00657238 0.00170849 0.0166755 0.00615223 0.00162701 0.0230047 0.00580683 0.00160747 
-0.0285745 0.00603652 0.00157628 -0.0275444 0.00573818 0.0016598 -0.0176178 0.00526581 0.00157665 
-0.0257911 0.00714316 0.001611 -0.0158491 0.00644873 0.00163684 0.0148332 0.00624139 0.00160371 
0.0200009 0.00524877 0.00164241 -0.0279796 0.00816587 0.00164678 -0.0235892 0.00756501 0.00159594 
-0.0172592 0.00747066 0.00159876 -0.0147607 0.00670808 0.00155702 -0.0257333 0.00821287 0.00157711 
-0.024507 0.00840435 0.00160934 -0.0176242 0.00856284 0.00160901 -0.0160076 0.00841941 0.00161342 
0.0172998 0.00731131 0.0016393 0.0178627 0.00842873 0.00167035 -0.0231923 0.00887013 0.0016805 
-0.0221246 0.00859657 0.00155805 -0.00164544 0.00812464 0.00166652 0.00150134 0.00946516 0.00166586 
0.0167435 0.00909316 0.00162362 0.0187917 0.00913419 0.00160624 -0.0276093 0.0102685 0.00158329 
-0.02421 0.00951017 0.001654 -0.0193384 0.00921357 0.00166398 -0.0163584 0.00946707 0.0015972 
-0.0149697 0.0103961 0.00169443 -0.00973586 0.00849568 0.0017454 -0.0013146 0.00931305 0.00194122 
0.00305295 0.00904298 0.00158718 0.0150083 0.00975325 0.00170173 -0.0266323 0.0098409 0.00162145 
-0.0184163 0.0105511 0.00163085 -0.00331546 0.0103159 0.00165662 0.013886 0.0106384 0.00207682 
0.0179042 0.00974704 0.00157563 -0.0228988 0.011272 0.00160845 -0.0200438 0.0103765 0.00160102 
-0.0184977 0.011674 0.0015806 -0.0173486 0.0107409 0.00158147 -0.0158654 0.0113702 0.00163552 
-0.0147123 0.0115055 0.00164747 -0.0115106 0.0102013 0.00159738 -0.00141335 0.010383 0.00160694 
0.018573 0.0111765 0.00155313 0.0266742 0.010806 0.00154958 -0.0245998 0.0107381 0.00158901 
-0.0217855 0.0113729 0.00161948 -0.00428045 0.0110132 0.00164413 -0.0240468 0.0130001 0.00162219 
-0.0176577 0.012462 0.00160622 -0.00598043 0.0115795 0.0016034 0.0165372 0.0127402 0.00162922 
0.0177435 0.012586 0.00163775 -0.0260352 0.0137056 0.00164631 -0.0254661 0.0126361 0.00157537 
-0.0219932 0.0133026 0.00163211 -0.0126615 0.0135841 0.00160631 -0.00797726 0.0121802 0.00158223 
-0.00684302 0.013703 0.00169847 -0.00257798 0.0131075 0.00162562 0.0169967 0.0144299 0.00161677 
-0.0243235 0.0145208 0.00164242 -0.022787 0.0140559 0.00158109 -0.0105325 0.0142623 0.0016308 
-0.00574988 0.01392 0.00165865 -0.00403335 0.014152 0.00157985 -0.00133106 0.014638 0.00161072 
0.016368 0.015402 0.00166099 0.017627 0.0153222 0.00156721 -0.0233971 0.0160026 0.00158834 
-0.00418842 0.0154017 0.00158087 0.000181325 0.0158602 0.00172082 -0.0243833 0.0163833 0.00176853 
0.0173562 0.0174345 0.00164757 -0.0220028 0.0158558 0.00164744 3.33419e-05 0.016981 0.00166964 
0.0150537 0.01731 0.00158985 -0.0236657 0.0172145 0.00169142 -0.0211545 0.0175762 0.00161757 
-0.000430123 0.0186943 0.00165103 0.000719445 0.0178556 0.00161083 0.0120705 0.018024 0.00168294 
0.0177382 0.0189254 0.00165761 -0.0232246 0.0181734 0.00155499 -0.00615744 0.0172991 0.0015824 
-0.00525678 0.0179239 0.00163405 -0.000893874 0.017626 0.00167138 0.0192933 0.0193734 0.00163672 
-0.0220138 0.0188225 0.00159448 -0.0181611 0.0192505 0.00178001 -0.00318457 0.0193358 0.00167828 
0.00116427 0.0202073 0.00159827 0.0125742 0.0198872 0.00187557 -0.0211248 0.019538 0.00164044 
0.000269442 0.0209092 0.00163718 0.0117365 0.0207935 0.00160208 0.0148674 0.0209587 0.00165402 
-0.0191825 0.0200809 0.00163641 0.00577427 0.0208782 0.0017327 0.00800952 0.0211387 0.00206152 
0.0101294 0.0214574 0.00157503 0.0120027 0.022452 0.00158414 -0.0031512 0.0224261 0.00183574 
-0.00482542 0.0221931 0.00159748 -0.00205519 0.0243602 0.00160503 -0.00322014 0.0239865 0.00165568 
-0.000997328 0.0247243 0.00162347 0.00126051 0.0256266 0.00166212 0.00530103 0.025475 0.00160517 
0.00601101 -0.0287167 0.00165674 -0.00878395 -0.0280608 0.00189165 0.00473098 -0.0277517 0.00175547 
0.0102357 -0.0275495 0.00212737 -0.0114497 -0.0270087 0.00178562 -0.00972973 -0.0274926 0.00158429 
-0.00760445 -0.0279846 0.00173778 0.00384234 -0.0267548 0.00213058 0.00531509 -0.0267317 0.00170283 
-0.0126526 -0.0264095 0.00173956 -0.00902766 -0.0266421 0.00165919 0.00435087 -0.0253565 0.00157621 
0.00746303 -0.0266126 0.00214407 0.0101278 -0.026312 0.00204594 0.0125667 -0.0263423 0.00212661 
-0.0104638 -0.026427 0.00167655 -0.00751624 -0.0261335 0.0015797 0.0123795 -0.0252017 0.00279054 
[...]
POINT_DATA 17850
FIELD FieldData 6
id 1 17850 int
11853 5793 11746 735 3870 12904 15908 13383 10441 
5649 4744 9055 1836 4509 6675 9810 8441 9832 
16395 9352 8344 1344 3911 7991 4472 16126 2693 
16734 13844 16137 5284 2889 17629 2123 8814 15226 
9380 17080 15034 1777 14829 2251 14143 5267 5377 
13278 11888 10706 3290 13393 12048 8635 17430 4078 
14546 5638 4860 6080 16000 13337 2240 12625 4174 
5843 8730 6861 5081 717 14128 618 10927 5861 
13682 13897 1797 10767 15315 7733 14275 6397 6039 
14158 2472 14476 11481 470 3049 1281 13448 5477 
12537 10699 1947 9224 14080 6163 6625 9198 15422 
12489 8250 12004 1015 2367 12667 13310 5568 15873 
12285 11871 12334 15872 2707 4118 2287 1019 9958 
16498 16378 6012 12240 3152 5392 10937 9519 11631 
16021 10720 2354 15982 14591 12787 1244 12699 2414 
12840 12369 16651 9867 1356 4235 14695 14300 15171 
14444 14808 9930 2826 8415 4736 17260 4173 1956 
17319 1309 2603 12514 17249 15130 8027 9602 15336 
6823 17647 16369 6449 6590 17650 14333 9622 355 
11958 15379 6221 9689 7608 909 4909 11211 12357 
10543 6665 17301 15534 16500 2840 7824 13247 7061 
17625 2471 12793 2869 4433 17764 7232 1371 9455 
8084 6785 17356 17538 2645 14904 10077 7851 10846 
16743 552 4664 16092 11835 7445 15436 10305 17201 
6820 17596 17505 14840 12728 14387 15472 1013 8563 
14552 2258 6046 8633 14514 6353 11970 4140 3710 
14244 12111 8343 14499 6413 16891 7160 11887 16482 
17560 7906 16272 3114 10297 11706 11420 3362 3403 
272 3217 9431 12231 12672 16800 10089 201 2264 
5025 3242 8935 3989 8499 7954 4808 9903 13967 
2599 4669 9159 12102 17117 1988 5338 15312 6962 
2480 10544 6173 1756 5784 13030 10677 807 11358 
13174 6981 16944 4550 2762 17641 17129 17778 12453 
2562 12097 13210 3674 16798 16198 510 2045 14511 
7063 17636 2408 10573 16043 8790 8064 8075 8157 
12025 6503 12495 14321 7859 515 10658 14377 9099 
5038 4490 17142 13721 13472 8487 11372 17108 12695 
17162 8373 15796 5851 11070 5671 12340 17654 13205 
14704 14103 2249 14798 17614 16594 3442 13371 11767 
11665 2075 11568 12621 11364 17309 13419 4273 6226 
5633 7446 9631 10203 16157 3898 10860 2057 15293 
8202 3897 16707 10584 12321 5455 15691 16677 7216 
6850 4867 16925 3892 5474 2377 9665 16044 15515 
6367 128 15418 1454 15749 7427 16781 5001 10581 
14461 9754 4021 12759 971 17451 6030 9510 16623 
8771 17670 16424 14069 13250 6406 4690 5582 12005 
1840 6945 4192 13294 1544 17315 6800 4168 7858 
11592 10975 16230 16325 1851 14614 14274 4178 17016 
4927 15474 7866 12289 7719 17694 6789 12688 17709 
3693 15189 8097 15056 7477 8729 10592 10429 9284 
7684 359 12329 7599 8861 1751 9467 3724 13710 
13133 15610 2424 1346 6795 7013 15234 9824 15198 
4130 8963 2969 1510 16240 11946 16223 16436 7058 
17218 11846 11273 14184 6548 10139 13729 9513 13901 
15115 1036 4305 7116 3756 4077 4754 7887 13019 
11020 4299 15122 15966 9193 4547 13263 9486 7056 
17334 8761 10823 7882 6984 12267 13778 14469 5412 
14828 9695 11907 1805 9080 16199 9005 1463 13545 
2474 1520 5727 11558 6594 13334 3317 8406 549 
37 10787 3893 6689 5221 8995 13071 16389 1651 
10207 8437 10765 9090 3281 5194 315 3525 8908 
8625 8571 3001 853 861 9014 3588 17723 11204 
7340 15095 14277 5327 16678 15043 13286 6805 260 
2797 3526 1317 10621 9251 10430 12754 2215 2963 
14720 797 16668 14185 9021 13699 16952 5946 14559 
5708 63 10697 1860 14854 3917 2844 3182 11795 
1854 5703 6978 15715 17562 8714 3748 11276 1506 
2719 3993 1315 15595 4985 12786 10930 339 2800 
15523 14189 17640 14669 7250 4643 5747 1786 6321 
17815 15865 17104 2046 12553 3833 2682 16793 13 
4462 17632 10771 7397 800 4604 6936 16603 1991 
15512 6934 8859 9749 17450 5177 4292 3418 7790 
7678 7789 14061 687 3038 6565 8710 15701 2357 
6096 10801 10412 17760 5572 10353 13049 16732 12547 
12791 8860 3691 7883 9060 14057 13134 7382 1084 
8242 834 13711 2094 11235 2144 5686 8516 10806 
2594 3839 11850 17161 385 13484 5333 4656 2794 
13917 9105 6320 14492 2099 10996 11412 2265 7403 
6809 11432 13473 6977 10776 10923 3888 763 4291 
6639 7072 8925 2390 12078 14839 6469 9804 2014 
5495 14879 17013 14843 346 17591 104 3447 6020 
16735 15724 6980 3273 3834 16109 1526 4582 15561 
3 16922 3948 12702 8377 17465 16726 4501 8765 
4269 1047 732 14615 3583 15264 8395 14949 6079 
6122 11287 401 11547 13314 16559 16927 16496 16493 
483 4105 6191 6154 6390 6432 5859 5695 10733 
17479 9856 8130 17287 6746 3179 17646 12125 11369 
13706 3191 13213 14735 5424 8918 9201 17677 2486 
12945 13912 14679 4528 1376 14269 939 17845 16008 
13551 12253 1340 14567 4954 11530 4622 3269 8768 
17767 7756 11540 11738 16030 17061 11123 4065 7739 
13297 11475 17070 4984 2646 7690 17529 2368 12049 
642 3420 11712 15933 9620 4398 3211 7704 7507 
5391 6812 15811 2211 13372 4870 5525 729 3853 
14901 16939 3846 9670 6666 16621 14607 11949 16753 
1516 2086 1954 5860 8307 10826 10553 8376 16399 
10738 17848 1313 10915 3271 4698 9828 4979 2761 
17705 10712 9337 6768 14451 5567 1921 7672 5990 
892 13469 14014 11086 15089 5524 9299 7237 11387 
2220 17676 8890 7643 4944 2680 5334 3877 1350 
15475 4542 638 6855 14888 5218 5027 8894 3703 
9917 11295 13831 7569 972 4555 14731 6931 17325 
9293 9585 8903 3634 5957 8912 13841 7874 3554 
13790 15225 15564 6832 17663 14569 8274 3823 7118 
1509 14359 9351 8607 10932 3004 6838 16582 6577 
9682 17417 12404 5966 6051 9590 12167 2257 10240 
5173 12263 3765 12152 2843 13451 931 14441 16928 
15611 8741 3031 13477 7264 15176 4407 5523 9566 
1280 15219 1700 12131 8258 15330 9527 11524 11546 
4436 10824 615 13691 2979 9915 7552 9488 3613 
2247 16503 7184 12679 8792 12146 5541 11596 5514 
8675 1072 11487 12908 7821 17774 3120 5639 15539 
2393 2469 10219 1703 7591 6322 12419 451 5644 
12414 15567 2365 2671 6690 17785 8555 10145 5934 
2898 8113 13424 7062 9396 10922 14681 9512 2617 
2029 5818 9608 3521 2041 8524 15847 7092 6502 
4861 14587 3068 5846 331 5040 1575 171 1269 
12811 13885 7638 3232 8457 11797 16315 1154 4914 
1844 3735 3793 2661 8784 400 9772 6147 428 
3098 3533 13117 4599 620 17064 9562 11119 4347 
6828 11601 4354 6402 15120 4960 6633 5450 5071 
64 1150 12911 622 4374 10575 17517 15064 1643 
17300 7147 16003 3631 9937 13762 953 10705 8239 
13343 7108 689 17642 3555 15600 3734 10986 2909 
958 9316 8590 11759 17836 14262 4155 5113 1715 
5172 10193 225 7526 361 12524 10505 11788 4842 
1649 7567 8041 4483 7325 11407 10935 7417 10046 
7729 11023 2816 6940 4640 11897 13016 16177 14995 
11798 5800 12213 2366 17393 1681 8968 15249 14747 
6239 6354 11614 8514 13086 11990 1189 663 16804 
13562 1716 2487 8547 12459 17199 8421 6211 11393 
3908 3043 16648 662 1518 15614 17294 12730 5411 
8053 8375 7346 11866 2763 11889 10035 5628 5348 
9712 1046 2372 12917 11471 15026 11001 2895 17068 
8332 3044 9161 3027 2657 16434 8388 8478 13541 
17368 852 3677 2446 17478 2704 11148 775 15700 
9674 12304 10626 6896 13959 10997 12530 5078 10081 
6470 5539 1049 10829 5005 1819 11647 2550 14863 
8179 4588 2202 5833 12001 11043 13515 1434 14595 
11926 11455 14764 12973 9539 7705 2241 9625 9340 
16380 2384 1739 11544 13079 14743 2759 2543 10264 
5919 9720 15573 16145 9249 13421 13481 13352 9359 
1545 5026 13162 1541 17422 1430 9056 14501 3858 
16969 13032 6566 4414 14266 473 1069 17144 11721 
12376 11446 14957 550 13199 6908 13652 2463 4671 
1044 5187 3144 3108 7046 2133 9586 31 6085 
11965 322 5230 8809 15016 9887 7363 7708 6550 
11397 17823 11589 13751 14049 9229 5521 7004 8676 
14481 1238 11726 7596 10837 4693 6847 5002 2314 
16381 2883 7960 13867 7901 8212 11047 16771 4843 
8917 2475 11133 8133 15177 10567 16149 16259 1951 
9232 13139 13036 9747 4950 1647 13426 9655 14379 
3308 8038 2316 16257 17286 11566 13367 245 10795 
2462 10645 11228 15584 2992 8139 14202 15815 1423 
13188 10308 16254 15563 6393 6839 6830 3394 527 
6277 351 10698 3153 8772 1236 2900 16877 10 
16253 14673 12799 3640 9182 7095 16330 11676 2699 
13857 10270 8598 11297 11186 8494 16320 17839 4006 
16108 2030 7633 10365 2327 3316 13543 11564 1813 
11995 14950 6912 1258 13900 9884 13109 9756 16220 
15126 1288 17565 11508 2000 9429 2027 9283 11190 
2235 5555 2248 6475 7709 15098 9064 4711 17425 
7045 698 9354 11014 5052 9744 10483 14030 4338 
14138 11503 1467 7771 4091 8787 10286 14442 13418 
4948 15423 3566 13497 1204 16114 10083 6804 7428 
3933 15243 3030 11966 3523 3415 13575 5961 2417 
6906 10870 8698 6836 6267 16887 3852 17555 13731 
9686 8537 1811 4901 1382 13939 10376 4011 11380 
14789 16588 11283 15132 2902 11452 11083 7622 10513 
17210 6437 3592 6834 16478 13206 10354 7422 16289 
16431 10266 4917 1354 3265 9803 11708 15833 10014 
74 12113 434 3837 3213 17765 1903 9103 17414 
7524 17116 9614 5158 2943 6783 17051 5203 1704 
4989 5526 8670 15961 9687 6266 6477 5275 5850 
16354 12101 16940 10413 9992 14920 13814 13925 79 
11339 5314 13463 6319 2388 829 14018 15996 1761 
8447 12483 17464 9377 4274 7370 1764 17168 13467 
16568 14325 319 839 11754 17040 8253 2198 2659 
12338 437 7039 13788 4919 1783 8674 3510 3620 
2465 116 6976 10024 17049 3441 14166 2197 13643 
9071 5420 4775 14283 11434 7456 4674 2025 9649 
16583 15088 11191 696 15021 10995 5421 160 4629 
12057 713 2731 13816 11822 888 926 11 11396 
1867 8985 3931 5914 16060 2500 4612 932 6120 
1853 12496 17755 2683 4807 215 1277 3295 7214 
7671 13705 1088 15324 16088 10668 16371 14894 7419 
15642 7336 6436 13479 984 14848 4014 16847 6967 
10533 8043 479 8950 6398 14096 8696 13046 12842 
6297 603 8336 1444 11056 3817 7916 5197 16830 
11309 17441 15504 10595 16875 15409 2189 8498 9925 
5950 4998 342 2605 17829 11229 1523 11330 11948 
2441 16184 8032 4402 2373 8807 5520 5724 2413 
8145 11670 11117 11531 16290 1111 15946 15362 11904 
9258 6869 6965 6840 12122 7577 134 6539 6575 
2595 6200 4851 7129 8824 8463 17532 6915 14830 
5997 15285 9755 7485 4923 7319 947 8785 9592 
12879 1893 8176 1460 11777 2333 14680 17840 15556 
10351 17458 5164 744 17230 14967 6562 12563 17800 
8446 14573 13005 7502 12626 17226 15777 751 16472 
17557 16783 10085 17573 11991 2870 1862 614 9770 
10987 10084 2839 8898 1652 3134 10173 7424 7803 
1216 1475 3423 211 6990 3325 3578 2530 7133 
3299 5932 2921 4636 1580 13092 9778 5598 10143 
13523 17386 15579 2016 11636 6711 10753 564 14634 
9511 13799 438 6264 10352 16818 11007 11885 1185 
10018 874 6852 8606 17821 3912 13716 11102 14474 
5294 6563 6792 15128 6712 11292 1686 1633 17825 
2721 6184 12795 10301 7178 16661 11732 13160 1398 
12981 17203 11538 8858 13320 13760 10878 14302 17115 
12498 8210 15204 3824 7510 7469 5461 4992 12188 
9480 8872 5426 8340 9795 9701 15995 3028 1417 
71 259 686 10955 15844 10384 13198 4139 8685 
10639 3788 7196 16599 5111 4655 2692 3937 11237 
3862 13428 16486 13798 2712 657 16898 665 6093 
3998 14395 7276 17076 12774 2416 2637 22 11847 
10146 7420 14175 8956 6542 10427 16155 10939 11158 
8565 3156 1630 4324 6739 7773 161 6327 9439 
1517 5446 15042 10208 9888 11774 9933 17296 16207 
3039 6532 1774 7675 9817 4426 12176 15692 4572 
3174 14507 6765 1440 16341 11656 11920 3263 13153 
12768 407 7629 3055 7609 10199 17171 7769 10759 
15080 16988 11937 1131 12809 682 6909 10294 8205 
7664 1778 8345 14361 6016 13191 6043 280 3856 
5415 14221 14371 13204 9643 8412 8945 1522 17169 
5144 4359 107 10015 7514 13969 13836 12513 2468 
4286 11729 4682 11401 17766 14910 1263 14191 2569 
3189 3135 8080 12976 2523 15529 17628 14997 6419 
1139 1168 5208 5717 9355 14905 16451 1465 2330 
16106 9639 17101 3165 2052 7669 14273 1381 6793 
9072 8866 780 15223 17442 12509 2458 5595 4692 
7390 14545 7848 6867 16040 8705 1053 16489 4244 
14688 12155 16201 1464 17631 17495 17384 7260 1912 
7290 2570 9286 8482 16945 2421 2771 5189 2506 
16792 9367 6691 10783 12953 197 10598 14161 8731 
4790 15923 9717 16628 1636 11668 13135 8382 15103 
752 13289 12680 16862 589 5326 6384 9226 17256 
16318 15695 17833 14742 9946 10980 5976 9007 1024 
1286 17065 12203 436 3746 5483 11968 8126 15894 
3607 6924 13990 13508 15349 4356 12920 7707 7315 
543 1299 1016 16548 12705 11598 5325 12087 9831 
4262 15385 12617 4093 4249 16358 15723 17612 13344 
2322 15775 6705 9863 4251 1621 13212 3537 2588 
5512 5132 17713 15025 6956 14770 16666 5693 13406 
5271 7941 10566 528 15169 15970 773 14654 7827 
13618 4043 17512 7642 15634 13527 15956 6505 6166 
8169 781 4030 5012 6282 15032 9068 6485 9936 
9248 8182 13906 4829 16554 8656 5896 9278 7123 
10391 15823 469 17485 3874 8100 15372 15425 3373 
885 4473 13878 2655 6447 2877 7909 11161 9916 
7576 1626 7369 2121 15931 3408 8865 2244 5591 
3096 2450 393 2190 16321 841 3864 8329 7205 
7064 2701 3432 5467 16262 6509 2997 5056 13370 
2309 5244 9780 17041 8639 17109 9252 2476 3359 
10638 4107 5547 4518 7022 4238 6791 15532 16540 
14741 6108 12348 13736 11494 10797 1336 14047 16873 
10013 15299 787 7166 9966 4662 10780 12677 196 
7764 1559 11829 4803 11557 741 12470 5459 14761 
427 8852 694 3621 4778 7317 882 7149 5153 
15090 9444 14719 6381 4569 9349 6165 5844 10128 
7711 3193 7897 15119 7518 857 16930 2619 541 
12690 12882 3307 10611 3093 17419 17112 6003 11711 
808 8975 13056 4419 9191 629 16819 4058 8328 
14031 6128 17259 13279 8112 6164 8035 17257 1958 
9434 14602 5603 16961 4334 11013 7475 11637 8601 
13216 10112 11761 8069 14151 13880 122 636 6679 
6887 1646 6500 17527 9823 12430 12211 10005 17056 
15380 12479 7331 9413 10279 7946 10786 17550 11248 
5282 4123 16107 14827 7746 14555 6613 6621 2209 
1512 7350 13922 6124 9591 4416 4822 12324 13514 
3210 680 446 5442 15045 12616 4245 244 9358 
5228 16510 13520 17048 1427 3515 12072 16865 1738 
7947 11953 10355 3535 16295 2580 12164 11720 4429 
10708 2966 3266 12706 11793 4345 697 12612 6323 
17722 13539 881 3559 7034 15732 4427 5769 17412 
2351 15665 1276 8238 9108 2447 453 5583 3995 
4461 16722 15538 8904 5665 9574 5858 2503 13273 
11677 14883 11262 5508 8808 8665 217 2575 17583 
14898 12998 11424 3105 5808 2777 2924 7338 14123 
126 8757 5697 14382 17701 14757 7670 10319 6895 
3885 14787 5443 9502 12355 1483 3601 4704 15484 
4444 2488 5246 1766 5566 7253 8588 17385 17094 
13436 11336 15543 17156 4862 556 7714 12517 7288 
14616 12963 13640 506 14717 15473 16889 1285 16539 
15251 12264 406 10790 10064 5891 727 13465 13975 
2958 7963 357 11131 72 332 1327 7980 16180 
10028 1607 16670 14328 10477 11382 5162 11480 1383 
15828 5712 599 10847 9130 16606 9361 16956 5853 
12836 15576 14110 10226 1471 13720 5365 9656 6999 
6018 17071 5149 10418 5453 10769 4180 7605 16512 
13010 711 17165 1187 6533 13323 577 17176 11696 
8385 5757 9923 15927 6797 4441 977 11842 15588 
3935 4219 10916 13303 13143 15570 13105 13321 3599 
15846 6900 9481 8763 651 2062 793 16470 16313 
6072 1345 7940 1546 11634 17067 4677 1176 15141 
1884 14522 146 10724 13995 8316 7165 8046 7865 
16332 13887 17247 6011 17253 11753 5832 6068 7450 
360 3458 6587 5092 11298 7554 457 13960 13966 
6726 9088 1220 4738 14257 11685 10934 4659 15447 
7919 13040 10492 8352 8428 8501 6769 13022 8358 
13039 6292 17038 17037 12341 6949 8609 7998 9664 
2670 17424 15246 4544 2537 10959 11338 816 261 
7592 2164 13235 8292 16571 13683 15096 11096 10651 
38 16754 15782 3101 17244 2691 6488 9855 10500 
2678 5362 8272 14345 14106 1316 8479 2042 2505 
13786 11543 13103 11130 6460 4355 7332 5941 4079 
12139 13873 14834 16791 9637 1725 16396 143 2513 
11978 6518 12346 3884 8461 13353 6410 666 1975 
13767 968 8520 9524 14051 4809 15951 2739 15009 
8855 6291 3550 7174 16456 17545 11690 8773 3002 
2795 15699 6330 12190 17088 13739 16397 317 1680 
10296 15250 14489 4163 9552 6927 1524 15404 11389 
12410 15835 12939 16721 15485 10665 16006 9420 15853 
2538 8844 4510 6559 12637 4215 13295 3527 16509 
8989 4071 8197 14989 3226 5371 4735 1691 2153 
141 1018 5750 11669 5801 9041 6148 14856 8736 
17798 13812 1014 6435 10103 3042 11744 6776 14334 
6014 9587 14316 2894 14877 11299 15245 13769 5003 
3768 9911 6052 6010 6172 15183 17009 14952 3844 
12033 13672 10745 9976 4732 15289 3239 16895 5475 
9914 1611 3150 7879 16224 1549 2660 17172 7635 
17462 16639 918 6612 1479 8654 17383 16567 1078 
12352 6307 12160 16591 8940 15985 1987 1022 5103 
12802 6232 10245 4372 2234 5192 4358 791 2825 
14312 435 6062 7462 2615 12881 5375 4850 17428 
6008 5569 6299 8154 16366 10827 5394 10329 8992 
1917 760 5607 8460 13660 4601 17363 11282 4487 
8845 10414 4886 14218 4904 8206 16317 7989 5018 
12632 16706 1694 7104 1062 2428 11539 13665 1343 
16570 7473 7392 11874 2132 7487 17403 15261 4234 
13228 4475 4415 8256 15674 10356 4388 9381 6683 
901 3807 8828 14621 17704 4384 187 8921 12771 
165 8846 10095 13905 15376 10772 10911 6350 5358 
10158 9920 14547 5814 11536 17399 12196 14393 4575 
373 12846 29 7817 16765 4877 7861 8018 3992 
15111 8820 7574 12 450 11780 15399 17838 11421 
8490 15267 17423 13388 15440 11519 17206 10562 5868 
16893 3472 12265 16949 8102 13475 10522 4586 4857 
6070 1375 13741 11374 16626 11658 413 5152 2253 
17106 3046 16978 11703 46 10135 13881 2246 16537 
14282 1831 17092 13876 15158 234 7761 13952 14054 
15331 15325 9671 1722 16013 4637 9297 1888 17087 
9613 10852 17515 11493 11346 5786 6959 12756 9619 
1798 16846 7476 5299 15842 2998 4303 4611 8915 
3922 1459 15976 10953 10743 3491 10069 17223 16998 
7032 4229 5378 6874 3335 17449 5705 5642 13095 
4539 11101 8407 13385 16067 3355 6535 11413 8553 
17771 1965 8683 5837 1981 6788 12301 13317 2664 
12056 11902 13561 10646 14972 7804 12154 14193 12474 
7663 1750 10462 4296 16704 14078 4137 9786 13062 
12604 2935 14660 10667 15861 80 10381 2669 13094 
3448 1325 15340 9534 1583 11342 3953 16750 14880 
3800 5987 12602 3169 14810 13929 2984 6055 4313 
14806 723 529 3751 16853 7294 1121 6089 2976 
9063 14429 7934 11112 15704 14978 17477 17510 16282 
9493 13889 2002 16855 11618 6551 2896 16288 7734 
1627 17810 13145 2667 4625 11745 11836 4605 2652 
12017 1267 12030 10844 7534 2510 17816 14431 158 
15820 16519 1538 15755 11247 9344 16635 598 1919 
6074 15187 15227 10695 16747 8782 3778 9477 5872 
11392 5738 17665 7478 17050 1275 6737 8703 2911 
1960 2907 7763 7385 4056 4554 10909 14087 7192 
13420 14 268 14076 11919 6660 17772 7981 4143 
6113 16514 13362 5785 9607 1249 3175 12737 5236 
8826 8697 13696 8293 8462 7807 9816 9142 1063 
4527 9051 10127 16683 6349 9097 12230 15741 11317 
13255 8589 6932 13961 10770 11504 14491 8096 6203 
8002 16027 14590 12801 5827 5088 1869 3798 12745 
2971 16461 17645 9825 8905 14964 10539 5623 14400 
6657 11763 1067 11419 14766 3483 14763 13491 10328 
4825 6865 10060 2551 4152 13828 5216 1284 14196 
8944 7333 5654 13053 4537 15381 1605 8483 6491 
15284 8451 16490 6338 15617 68 12067 13037 2636 
6699 17576 7200 13349 17592 2143 10524 13750 10057 
13576 15209 5476 16538 16141 13601 16844 5159 7952 
9688 2717 12816 13605 16471 5734 13921 231 13311 
16574 4511 5418 4726 17200 3188 9398 4796 1729 
2039 8323 15295 12967 14934 2306 2295 8233 6471 
364 17622 12867 6150 14053 15117 14241 212 8930 
433 10657 1528 11894 4125 10176 14846 1400 8147 
10949 3495 2353 6433 16080 4543 2100 5077 11977 
11425 12855 1495 14494 737 15618 862 5323 41 
3412 320 14136 15371 5393 15313 17179 2845 2581 
4759 9752 3946 12930 3669 14386 10875 17239 16971 
13583 12675 14765 15554 4468 11794 10021 10272 1020 
15620 5915 16970 3969 213 1582 1374 17075 9584 
9944 15129 2266 16748 17526 8098 7631 7990 16248 
12723 15010 4920 62 13318 2348 11300 6368 13452 
8951 9798 7871 16440 6538 3402 11528 1394 15585 
14306 7055 8314 2981 13065 2802 17762 4791 11857 
5701 3159 15173 1658 10074 16304 1850 531 17506 
16861 8519 7065 3661 12746 17072 3365 716 3164 
2727 13237 10643 5719 10640 8436 8327 15947 1916 
8007 11175 7935 2254 2937 8008 3759 10298 16276 
13794 15044 7677 16681 14259 1003 3061 11384 2481 
10664 13639 5515 1570 15869 2995 12382 15839 3553 
8392 9990 5798 12117 4158 11682 3611 16820 1671 
4189 3905 468 13920 1426 7384 6659 15361 15581 
4999 3845 9909 795 10983 13866 14610 4885 10490 
10480 8914 12783 8486 8623 2071 12221 2910 17617 
8322 2533 2848 15937 15182 8533 1586 9938 12620 
17197 5167 3871 13407 15789 9053 17439 7285 523 
3241 2865 11162 12592 12943 14452 13127 4831 1962 
17234 5698 6606 9025 7896 10633 4618 8228 16127 
1629 9737 3663 8355 391 6642 10217 7584 12307 