# vtk DataFile Version 5.1
Generated by LIGGGHTS
ASCII
DATASET POLYDATA
POINTS 17850 float
-0.0154462 0.00970016 0.00125445 0.0046651 -0.028943 0.00130948 0.0064278 -0.0287125 0.00127623 
0.00359891 -0.027764 0.00139561 0.00894117 -0.0276154 0.00131171 -0.0183198 -0.0228837 0.00124899 
0.0129189 -0.0231152 0.00153535 -0.0116419 -0.0169076 0.00128304 -0.00692857 -0.0154106 0.00160605 
0.0240959 -0.0167434 0.0013628 -0.0113425 -0.0133203 0.00127999 -0.00990253 -0.0133338 0.00131141 
0.0224509 -0.0140565 0.0012545 -0.0073717 -0.0132571 0.00127794 0.0190621 -0.0132792 0.00130556 
-0.0163441 -0.0127771 0.00127992 -0.0106973 -0.0124581 0.00127389 -0.00988478 -0.0117174 0.00130337 
0.0131426 -0.0128566 0.00128522 0.0204823 -0.0115868 0.00127161 -0.0175952 -0.011943 0.00138189 
-0.00313244 -0.0111598 0.00125231 0.0013534 -0.0116297 0.00129395 0.00693766 -0.011034 0.00134594 
-0.013092 -0.0112238 0.0013317 -0.0113445 -0.0106046 0.00127049 -0.00911932 -0.00918476 0.00125206 
0.0125869 -0.0116866 0.00228257 -0.0138775 -0.0101041 0.00129373 0.0195063 -0.0108356 0.00135519 
-0.0157249 -0.00987012 0.00134126 -0.0120064 -0.0097155 0.00127627 -0.0169736 -0.00902432 0.00128833 
-0.0157018 -0.00866233 0.00128686 -0.0183636 -0.00745464 0.00128218 -0.0174188 -0.00696561 0.00128871 
-0.0162421 -0.00777086 0.00128293 0.0275275 -0.00633185 0.00128026 -0.015675 -0.00657834 0.00136841 
-0.00421424 -0.00520998 0.00172538 0.017148 -0.00699553 0.0013468 0.0229391 -0.00591312 0.00196631 
0.028636 -0.00608534 0.00138324 0.0187094 -0.00594051 0.00139128 0.0246675 -0.00538106 0.00128559 
-0.0189723 -0.00499237 0.0012618 -0.0166518 -0.00500972 0.00123971 -0.0151863 -0.00504693 0.0012805 
-0.02292 -0.00488543 0.00127857 -0.0205371 -0.00478396 0.00134306 0.0098577 -0.00551228 0.00140843 
0.0117152 -0.00488579 0.00131827 -0.0265799 -0.00450725 0.00132728 -0.0243752 -0.00397208 0.00128878 
-0.0233383 -0.00390547 0.00127895 -0.0193822 -0.00388103 0.00123674 0.0181305 -0.00352288 0.00136708 
0.0274398 -0.00493123 0.00124658 -0.0259205 -0.00345408 0.00133394 -0.0224964 -0.00289032 0.00131001 
0.0113912 -0.00385846 0.00125583 0.0123032 -0.00319898 0.00132685 -0.0284521 -0.00253606 0.00125794 
-0.0271828 -0.0028252 0.00126833 -0.0291118 -0.00173338 0.00126345 -0.0268245 -0.00151645 0.00126885 
-0.0247401 -0.00206951 0.00134809 0.0112521 -0.00282518 0.00128306 -0.0276754 -0.000876631 0.0012945 
-0.0196088 -0.00111427 0.00134626 -0.0185202 -0.00122625 0.00123933 -0.0294555 -0.000341665 0.00126824 
-0.0267265 -0.000295482 0.00133605 0.00876104 -0.000729149 0.00125934 -0.0289913 0.000857637 0.001305 
-0.02619 0.00087612 0.00128177 -0.00820135 0.00107952 0.00128156 0.0112879 -0.000613717 0.00143269 
-0.00987489 0.00137891 0.00133577 0.00470965 -0.000257863 0.00126407 0.0262038 0.00128736 0.00131552 
-0.0138182 0.00367112 0.00131089 0.0169543 0.00280572 0.00166795 0.029181 0.00269433 0.00127971 
0.00325409 0.00334502 0.00152969 0.00502287 0.00383272 0.00146366 0.0283805 0.00427766 0.00131744 
0.00315568 0.00453487 0.00128209 0.0255782 0.00448431 0.00125158 0.0274737 0.00518155 0.001356 
-0.0172722 0.00567496 0.00131365 -0.00565961 0.0053074 0.00213771 0.020666 0.00689697 0.00132168 
0.0191828 0.00646862 0.00127349 -0.0138285 0.00744989 0.00126682 -0.0102727 0.00592228 0.00159246 
0.00271558 0.00721791 0.00130804 0.00441573 0.00607035 0.00128765 -0.0149284 0.00781221 0.00131929 
-0.00128138 0.00876388 0.00143059 0.000381878 0.00865096 0.00141588 0.00151166 0.00857415 0.00130137 
0.0204771 0.00914389 0.00142243 -0.0104267 0.00840909 0.00131462 -0.00796575 0.0078546 0.00128047 
-0.00248123 0.00901963 0.0013169 0.00275491 0.00891557 0.00128755 0.00446725 0.00865064 0.00130299 
0.0195332 0.00989211 0.00143468 -0.0179813 0.00947462 0.00127903 -0.0164338 0.00906028 0.0013396 
-0.000840548 0.00995617 0.00135338 0.000336515 0.0104161 0.00133774 -0.0138254 0.00987532 0.0012874 
-0.00197313 0.00997916 0.00131076 -9.02129e-05 0.0113878 0.00172422 0.0231932 0.0111337 0.00151742 
-0.00157754 0.0109976 0.00127087 -0.0020737 0.0122553 0.00129608 0.00366607 0.0110377 0.00133199 
0.0135086 0.0112117 0.001343 0.018603 0.0120745 0.00125901 0.0164413 0.0157047 0.00130723 
0.0187038 0.0151098 0.00131526 0.0174557 0.0162508 0.00126135 0.0190766 0.0161687 0.00128632 
0.0210061 0.0162889 0.00132078 0.0155923 0.0166046 0.00129955 -0.0220277 0.0184016 0.00142353 
0.0078798 0.0177764 0.00133045 0.00442558 0.0177369 0.00150522 0.0177499 0.0183257 0.00168327 
0.00255034 0.0216479 0.00152741 0.0040476 0.0221927 0.00133419 0.00322321 0.0233899 0.00129362 
0.00428891 0.0238438 0.00129025 0.00227314 0.0240603 0.00132751 0.00161441 0.0254985 0.00135611 
0.00339222 0.0251389 0.00129563 0.000903364 0.0265875 0.00125893 -0.00245561 0.0266401 0.00134739 
0.0019574 0.0267333 0.00128411 -0.00120934 0.0274472 0.00132734 -0.000153173 0.0271903 0.00130918 
0.000672724 0.0280842 0.00125902 0.00369871 0.028057 0.00134748 0.00508363 0.0287149 0.00131449 
-0.00125851 0.0289254 0.00130938 -2.28178e-05 0.0293672 0.00131115 0.0017447 0.0293146 0.00132853 
-0.00474709 -0.0286009 0.00328424 -0.00212368 -0.0284113 0.00228837 0.00163188 -0.0290904 0.00244482 
0.00344723 -0.0291073 0.00168971 -0.00759042 -0.0282678 0.00295966 0.00140326 -0.0275163 0.00251175 
0.00224323 -0.0281649 0.00259851 0.00473242 -0.0277802 0.00136555 0.00230557 -0.0269768 0.00139789 
0.00350079 -0.0266875 0.00166061 0.00734307 -0.0272613 0.00202861 0.00865352 -0.0265089 0.00136272 
0.00444964 -0.0259864 0.0016448 -0.0111202 -0.0249062 0.00261532 -0.00705255 -0.0263553 0.00256291 
0.00093119 -0.0259602 0.00190876 0.00280097 -0.0255695 0.00241001 0.00586595 -0.0253514 0.00254545 
0.00711602 -0.0258828 0.00191698 0.000778576 -0.0248646 0.00325187 0.00461472 -0.0247925 0.00152421 
0.00946226 -0.0254388 0.00128553 0.0124024 -0.0261446 0.00139283 -0.0157903 -0.024495 0.0022649 
-0.0140776 -0.0245657 0.00231044 0.00155165 -0.0240134 0.00276871 0.00514503 -0.0239879 0.00213587 
0.00652953 -0.0240547 0.00205033 0.00759104 -0.0242813 0.00218445 0.0102667 -0.0245118 0.00169537 
0.0115944 -0.0250336 0.00133041 -0.0167758 -0.0228421 0.00145942 -0.0151209 -0.0236353 0.00186619 
0.00436436 -0.0230095 0.00232 0.00596028 -0.0230567 0.00234766 0.0083683 -0.0233561 0.00158548 
-0.0156633 -0.0226033 0.00230125 0.00131417 -0.0229852 0.0022609 0.00690331 -0.0222707 0.00229037 
0.0136606 -0.0250242 0.00230688 -0.0187807 -0.0224967 0.00210582 -0.0141875 -0.0221037 0.00293969 
-0.00806404 -0.021962 0.00306079 0.00249118 -0.0220503 0.00291532 0.0038053 -0.0220358 0.00278039 
-0.0197973 -0.0216607 0.00246154 -0.017611 -0.0221042 0.00239924 -0.0163527 -0.0216789 0.00196037 
-0.0131955 -0.0211562 0.00262875 -0.00701467 -0.0211902 0.00315452 0.0056433 -0.0210145 0.0026976 
0.0067637 -0.0209668 0.00267275 0.00930538 -0.0216029 0.00226529 0.0122719 -0.0222508 0.00144677 
-0.018815 -0.0207725 0.00224497 -0.015493 -0.0210438 0.00196005 -0.012059 -0.0208298 0.00283866 
-0.0103905 -0.0210582 0.00233076 0.000776346 -0.0202728 0.00330251 0.0109917 -0.0208747 0.0012653 
-0.021168 -0.0201652 0.00173335 -0.0202367 -0.0210428 0.00127571 -0.0175062 -0.0203182 0.00236249 
-0.0145787 -0.020012 0.0013636 -0.0132873 -0.0201947 0.00165719 -0.00410009 -0.0198695 0.00237123 
-0.000909539 -0.0199958 0.00298013 0.0048819 -0.0199855 0.00280122 0.00675223 -0.0198975 0.00236643 
0.00891226 -0.0198098 0.00182252 0.0118111 -0.0199049 0.00156962 -0.0205499 -0.0190257 0.00149958 
-0.0124278 -0.0191036 0.0020958 -0.0101209 -0.0190839 0.00264762 -0.0047595 -0.0192457 0.00308229 
-0.00202164 -0.0188598 0.00244072 -0.000291692 -0.0190498 0.00305743 0.0015247 -0.0194072 0.00280283 
0.00669488 -0.0193143 0.0013104 -0.0171602 -0.0190762 0.00274022 -0.0150342 -0.0187052 0.00231748 
-0.0137317 -0.018366 0.00266415 -0.0122079 -0.0178885 0.00219545 -0.00956857 -0.0180496 0.00226193 
-0.00779508 -0.0179397 0.00266523 -0.0066626 -0.0180915 0.00219662 -0.00553212 -0.017716 0.00260016 
0.00417066 -0.0174048 0.00256759 0.00855043 -0.0187673 0.00217789 0.0115097 -0.0185232 0.00171785 
-0.0227155 -0.0183003 0.00219885 -0.0212858 -0.0184382 0.00245548 -0.0186235 -0.0185256 0.00200288 
-0.0152458 -0.0174636 0.00273568 -0.0141131 -0.0180098 0.0014147 -0.0106116 -0.0182753 0.00174002 
-0.00893689 -0.0171815 0.00239546 -0.00799955 -0.0168312 0.00200061 -0.00689809 -0.0164649 0.00205422 
-0.00326588 -0.017133 0.00261271 0.00274598 -0.0164884 0.00269721 0.00639941 -0.0168912 0.0023508 
0.00755942 -0.0171197 0.00171699 0.0224673 -0.0175855 0.00139361 -0.0230267 -0.0176776 0.00133605 
-0.0199939 -0.0177647 0.00243316 -0.018909 -0.016981 0.0020155 -0.0174935 -0.0171938 0.00221443 
-0.0100463 -0.0171312 0.00153499 -0.00484442 -0.0163739 0.00252792 0.00423563 -0.0161004 0.00250465 
0.00929529 -0.0162483 0.00184013 0.0110285 -0.0162977 0.00127205 0.0130789 -0.0162138 0.00149286 
-0.0220979 -0.0171484 0.00171842 -0.0210728 -0.0164081 0.0024782 -0.0183404 -0.0159662 0.00238609 
-0.0166413 -0.0160208 0.00129698 -0.0120346 -0.0164647 0.00216675 -0.0112128 -0.0158636 0.00129711 
-0.00928488 -0.0163069 0.00132724 -0.008076 -0.0157806 0.00146604 -0.00570762 -0.0152116 0.00181351 
-0.00367713 -0.0159361 0.00167347 -0.0023981 -0.0162241 0.00231128 -0.00141656 -0.0161369 0.00298551 
-1.09794e-05 -0.0162711 0.0028802 0.00110332 -0.0158107 0.00264415 0.00260214 -0.0153603 0.00246439 
0.00495433 -0.0153981 0.0017359 0.0207178 -0.0165083 0.00126938 0.0218786 -0.0166426 0.00150777 
0.0230063 -0.0163439 0.00134661 -0.0239222 -0.0161818 0.00204552 -0.0221787 -0.0155787 0.00230146 
-0.0198494 -0.0154566 0.0014262 -0.0180699 -0.014706 0.00161733 -0.0132963 -0.0157439 0.00151073 
-0.00905114 -0.0150552 0.00139248 -0.00459965 -0.0153216 0.00210165 -0.00198072 -0.0149968 0.00179567 
0.000279906 -0.0151995 0.0020956 0.00159456 -0.0146252 0.00239045 0.0247338 -0.015803 0.00157212 
-0.0209884 -0.0146385 0.00230984 -0.0156754 -0.0150295 0.00180232 -0.0148906 -0.0145303 0.0013638 
[...]
POINT_DATA 17850
FIELD FieldData 6
id 1 17850 int
855 4591 5773 11137 5764 17695 10887 17310 10798 
2702 10389 14317 17611 5151 12654 16019 11645 8937 
11455 16901 11778 12739 10419 5368 13087 725 12771 
5542 8461 17608 10257 11705 15140 6875 6109 10135 
16301 4341 3392 11975 6915 2757 14668 16098 11179 
17261 12269 4342 633 2439 9871 2046 4772 12008 
5691 12308 1678 12453 1926 2751 6772 1766 12221 
11956 6203 17525 2347 5026 17081 14116 6480 5472 
2237 6266 3361 16281 10243 12195 15843 5268 14344 
14969 15166 16674 7820 5307 14021 5804 17029 8048 
11038 5713 11739 5721 11757 6605 10113 10952 4061 
12750 1031 764 4517 5404 6644 4953 16886 8560 
4128 16937 8705 186 13704 11881 15579 10787 5785 
893 5174 13480 13907 16344 14995 16148 17219 5934 
10890 17059 5476 4805 6441 2036 16635 2727 4217 
12734 7329 4492 3605 11869 7760 4925 2082 12584 
12335 4268 3331 14723 3690 2076 5445 1098 5407 
1407 5484 6298 4192 1078 4894 5161 12252 1485 
5116 1554 6747 3196 3314 10457 7715 8466 16151 
11435 17092 8988 810 12147 10660 6106 10022 923 
3395 2286 8196 594 15573 4630 9187 1623 16469 
9492 4705 359 10425 8887 14940 14869 107 3597 
3691 6304 13772 11239 8755 5751 2028 17360 2388 
10739 6174 12264 15430 10702 2999 5503 3201 3047 
2418 10715 10570 6149 7980 14566 2202 1457 11553 
2863 10401 145 14106 7122 16220 7181 5353 5092 
2184 3436 11187 12545 8164 5695 14616 17647 9708 
14232 2327 9615 10697 12047 5274 3137 7998 4318 
7917 17036 15395 13161 14650 6640 13742 168 9274 
2269 17244 3308 5838 13990 16134 17206 11978 595 
9607 8584 11258 11803 5578 11006 9754 5097 11976 
14881 15834 13699 1836 1800 8967 16801 15602 4767 
12942 12777 10903 3738 6975 4300 5219 12709 11130 
14662 13430 5574 12821 13326 4076 8047 9390 8496 
13844 16670 124 3796 7989 2205 10708 1462 6396 
14902 4458 15630 15665 17291 5883 5839 1414 7450 
3919 7789 12045 15961 1287 9747 249 12226 17760 
13747 15556 11396 16328 11888 16421 3029 9897 14717 
3744 10888 3460 5183 4810 7169 1213 3840 10195 
16816 4932 5170 14300 16655 2760 14573 10729 1247 
4154 1217 1099 8080 16778 8688 17424 6438 9206 
8878 9069 7058 10258 12817 8934 13 12810 17700 
5690 5880 15139 14372 10424 11380 15414 2849 15022 
7496 16740 6488 16262 15503 11319 17693 11959 187 
7700 6391 621 12431 8257 10889 11758 2359 4956 
17699 10673 13575 8899 16864 17622 12804 10559 14504 
991 2441 10695 1870 11242 13199 11434 16180 2355 
1030 14473 14548 12056 12530 8203 5793 40 3591 
4596 7534 8882 11703 5833 14278 14976 2598 14397 
15892 16233 17838 7585 13247 9227 11426 5446 13523 
12478 13510 3505 17175 16008 15565 10920 9636 4532 
11823 16017 16193 3778 16484 11861 1133 14079 7112 
6483 11317 10172 5830 11855 8306 14751 12413 2470 
5295 9029 9703 8917 9303 3255 3423 406 16918 
3142 11521 3900 562 1130 8895 2405 8540 15054 
10973 10539 6080 17172 5607 10140 13482 3766 7115 
12743 8352 9421 17331 12422 10335 6207 17323 472 
13652 1371 6005 4266 2011 5929 13408 13449 4986 
16430 14862 6188 6572 8635 5725 10 10213 9910 
4936 10443 8579 10148 11972 1143 1267 11979 133 
9756 16953 3304 6791 3785 14024 5803 5296 491 
1348 7424 2440 983 14146 2154 6740 17144 11830 
12493 8593 789 11670 12499 19 10462 6427 12922 
113 16753 16744 8511 16683 3903 3712 2949 886 
15240 4584 9245 10837 6978 14040 16748 10783 12441 
4131 7793 1722 7232 2433 8469 12546 5702 11390 
2177 17018 1515 14332 4908 6547 15842 12964 7747 
14606 17567 607 1292 15407 7860 12908 2435 8591 
7579 16508 5901 9605 2160 13184 6546 16253 17796 
15601 12434 12927 11681 7672 14181 16197 15672 16529 
2264 9651 1015 3913 8642 1897 16359 11266 16863 
809 73 1020 2510 9416 7626 16785 17347 14833 
12057 2992 16363 2817 5789 5638 6803 1786 14999 
9346 395 9895 14823 8434 7326 14241 225 952 
198 13322 9977 16822 2233 15906 8087 8139 9892 
7942 5940 16166 12585 11501 7631 7875 14198 4360 
7071 17820 16579 6697 6405 2668 7363 7841 7673 
2541 4504 1253 12604 5642 7361 16129 13545 16060 
16693 9954 7231 9776 11060 1465 14763 15466 17744 
6575 11605 10496 15677 12500 6598 13403 17252 4307 
15529 5270 11325 6562 7175 14213 16905 575 7305 
10328 17421 4743 4178 2673 15046 11587 5252 15275 
15627 11862 7770 13504 17246 8456 2069 13186 12976 
13121 14347 9535 14311 2246 1516 12002 3790 5999 
13670 14521 7323 15894 6208 5241 12689 6111 16335 
1973 2945 4255 12567 17580 6855 9009 3020 15371 
14506 15487 10508 7902 14719 6369 12367 6787 2587 
13680 2792 6440 16948 12018 13355 12883 15097 16120 
9650 12278 11775 4761 14065 8322 11081 7192 13811 
1981 17843 8923 7852 8993 10405 8994 14381 6823 
3478 2492 13770 9551 17660 5431 3230 4439 4578 
2145 12740 17836 10306 10469 1263 17769 5844 2695 
16921 11691 3938 3005 16614 15855 16854 7636 5326 
7886 8294 17410 100 41 9263 11461 12534 15866 
14010 17819 15453 5926 16928 16173 3568 16004 9555 
17544 5739 16650 5524 12372 9576 12302 1806 16084 
6892 960 781 9488 15833 14272 6917 10017 2375 
16075 10774 16236 5178 13567 17285 4100 1652 4023 
4326 2387 6494 1148 15957 6607 10055 14505 13348 
17506 11985 9596 11442 14919 11709 8912 17241 5271 
16423 14537 17816 15801 2380 15478 14070 15403 14115 
16935 7154 11610 5620 12241 12527 17270 16927 12494 
1259 17600 5348 11280 13207 800 13215 12690 13698 
15374 6718 13962 7356 3234 17605 6814 12746 84 
17505 6734 10756 4822 7228 13277 14621 16643 10635 
2840 6403 1802 16806 17407 14968 13827 7577 7800 
2479 14180 5806 15375 13163 14528 3318 13662 10811 
4105 16786 13236 6905 10980 13059 8968 17265 12924 
17604 9998 17607 17008 9025 2578 7207 2271 2284 
11368 9079 10484 11983 8287 17026 14518 15937 4944 
10741 3701 4852 9262 10566 8894 12324 9199 15264 
11546 16514 13158 11875 11313 5637 3044 14196 11656 
12655 2311 7732 17697 8380 15528 10661 17631 13987 
13333 8457 8697 12593 2581 13534 10986 17590 10130 
4314 15278 3996 6481 8323 11931 12049 2763 3632 
17271 9364 14059 10326 12024 6891 16947 1972 13479 
14619 5960 15120 2823 7395 12249 14294 7905 16288 
10554 14105 15926 7864 4110 8237 16179 3064 11121 
12263 14859 579 2821 7687 410 11134 5512 10900 
1844 6621 14936 14132 10372 8694 15967 13784 722 
4569 485 5298 5325 1976 7325 17126 2469 15382 
17681 6513 1824 10210 5790 7249 10835 7870 15689 
17127 17293 3165 4658 4350 1464 9165 4200 11887 
2525 10929 3443 2345 3580 1918 2765 1892 13608 
4064 13587 15328 8504 7331 16252 2930 6254 266 
9905 2661 9299 5763 5135 11398 1417 2834 3610 
206 6262 6760 3481 12785 6029 3063 766 3635 
313 949 356 6538 12616 5735 4911 676 1615 
8034 8482 3676 13803 2001 11843 9285 787 638 
5240 5625 6796 9763 3541 2251 3588 10302 4230 
11542 1101 5234 4735 12692 5959 10417 5008 776 
10898 775 8370 3150 2956 322 6301 3468 4869 
2954 5809 11126 7283 1171 8491 8512 2027 7822 
4168 4948 559 5305 2199 11358 7177 2891 2630 
4614 1746 924 11262 4552 10020 10477 4234 761 
7389 6292 5746 666 5232 4038 7660 15502 11800 
3414 3886 3876 11745 4660 10533 5355 7114 184 
652 11228 6357 12551 6180 146 6365 1140 9800 
202 3406 9490 7210 2008 7582 12940 2505 4209 
3566 15878 5236 6881 6869 8813 16871 3914 17398 
11058 4564 1642 10281 8400 5006 12536 9003 16720 
8212 6571 5331 2652 1008 10177 7786 7013 14071 
9482 7385 2782 1828 4816 5455 8698 3484 4501 
4633 10418 6437 823 14890 2265 4993 9603 2824 
5529 2500 5692 6778 6553 10532 13720 17805 7862 
7441 11423 7796 15088 12495 16307 4470 6330 5826 
14529 11717 7678 10788 1877 12332 777 1356 5276 
11672 339 14689 2946 11411 8060 10669 13022 8206 
8651 7197 8777 12153 17088 3590 9887 8538 8794 
14877 11014 11671 1380 17447 9216 15576 2384 14113 
1478 14568 16409 53 8536 11930 10319 12856 362 
7580 1732 3514 13984 5941 1461 10549 3024 16042 
17067 13974 12851 9045 16259 11765 1778 4668 8713 
11424 7533 2791 5157 3645 4798 13927 14194 16330 
10211 7189 9331 14942 16130 7402 3881 7213 12681 
7586 4388 5889 5791 17682 16992 11330 9921 14214 
3405 13968 4676 10805 16382 11749 14794 6806 16243 
1739 17423 16108 15440 11997 3327 5964 13985 921 
14836 1830 15485 11169 6317 16400 11927 16154 8000 
9103 4536 11421 12576 14423 11684 45 7255 15584 
3226 16028 14366 7908 1054 9122 6557 6293 630 
2657 9759 16491 7969 3028 15930 1940 1025 15521 
17755 7872 7520 8868 11842 963 10014 9139 11647 
16424 16767 7195 9031 12855 16558 3458 13350 17722 
15438 7028 16551 3106 12919 16719 14605 9170 16287 
8130 12624 12390 1391 17389 16377 11612 14055 4785 
8971 15674 15710 8549 1325 10861 2686 525 5778 
2540 10435 10507 3147 12957 6457 5055 15432 14819 
15544 2815 5935 10136 3046 14989 9939 15589 8797 
16765 6070 4402 13716 14243 12502 7136 7140 13655 
8992 13195 11923 11666 3355 4594 7516 15023 6004 
7472 5572 3623 15727 13266 4161 16418 17479 2103 
9295 3228 11968 17723 7606 2062 9218 12179 2007 
9693 934 13908 7975 6471 3235 308 8845 13678 
9873 10304 11932 10553 3402 7302 2049 1343 5740 
3488 2643 15256 13890 7016 5027 10914 7659 14268 
1888 7170 15000 6291 3146 6094 7242 2922 6850 
12010 9684 8855 4212 11877 9838 4657 17652 10784 
9958 2594 12233 6022 13776 10272 10638 11464 4602 
8959 15586 14986 11253 4642 1597 2775 1817 14851 
13398 17657 16089 840 10652 14354 5475 3746 16264 
14633 15658 16389 5290 6730 3865 17366 5291 16109 
2157 12420 4510 5206 4681 12466 16033 16357 1583 
13471 9169 15418 10214 16739 16959 15888 458 1235 
15938 6705 11586 8740 4126 104 15595 12253 9819 
4420 12486 17595 11906 698 17835 11651 1612 15875 
5042 17673 17645 161 6388 6837 825 12520 12480 
7476 6002 12148 13318 11622 10170 11580 14208 9367 
7855 5259 9898 7596 12516 7448 2337 2836 17110 
16974 978 7566 12157 14555 10667 11722 4411 4024 
3362 4726 10367 4051 16297 15272 16607 2646 12340 
3558 4407 7925 4077 382 5149 4585 11135 3476 
13046 17752 6429 1989 8524 11578 13549 17582 14526 
3534 10641 4441 5854 820 17449 4959 17192 560 
15558 9156 6336 3329 3138 6384 11901 4424 4765 
8182 15721 14458 15655 13359 17813 1389 1449 642 
15214 4688 7345 13773 11444 5010 2319 14095 11615 
10842 16182 1152 2266 586 4973 6072 10760 6868 
16247 11667 10429 11026 195 11675 15826 13496 5595 
3277 10495 11797 15917 11293 14387 15958 15164 11618 
1831 6020 4933 4087 3780 12786 5732 253 14467 
12610 14554 11467 14248 7155 16538 11078 17632 5199 
1783 9355 9770 7613 12188 6693 1218 5931 3678 
2310 5984 3349 8758 7055 8033 9267 12288 9989 
9831 16919 8685 12423 1410 7741 10563 7798 16810 
16718 1372 17002 15510 6505 6200 12995 9017 8397 
14842 11197 8226 1110 12541 6776 9145 2476 5012 
5220 11493 12512 6952 2675 9541 8481 17844 8070 
13401 7211 951 16848 11857 9916 5058 12473 16093 
12912 15149 2414 2308 11643 1662 10703 6092 11828 
14395 17123 16850 3410 2983 17810 8435 16762 5195 
13248 8383 8623 12884 1228 3376 1529 2873 10846 
3954 8295 3483 12102 2565 7547 1792 509 17764 
1320 11150 5438 6754 3498 5655 5191 4926 13766 
6342 7920 8392 3827 12186 5280 12672 11996 10156 
7128 13476 14179 6862 132 9428 12602 5872 9399 
1358 12240 7755 8470 910 15524 9869 8354 1379 
15535 2622 17784 3649 14242 4393 2108 4426 11307 
13151 5346 6993 7251 15188 2601 10309 11993 1795 
13735 13232 1671 11977 9061 10350 17473 1261 3299 
15331 13616 4818 660 13298 12334 7559 1703 13196 
14296 13428 4483 9349 212 1239 8042 16083 6974 
10963 3037 859 8312 13796 14731 3166 10480 16036 
1128 3469 15975 7726 1904 2146 2829 15702 4354 
3289 9507 13530 13855 17336 11538 7426 7324 2832 
12357 14756 4762 9464 10294 16705 3377 17454 4364 
8259 13362 9410 7359 296 17322 4598 12782 12997 
17494 16029 15234 14786 13592 7350 10412 814 6165 
2195 7041 15614 15380 16564 15648 9506 10491 2128 
12021 9816 15079 12730 13638 8746 5862 8554 2296 
15946 9119 16528 1668 13531 10601 6991 2325 8626 
14533 12143 13920 16503 9147 13433 17585 16378 278 
4902 2106 5442 5882 12316 10770 8596 7976 10060 
17766 10789 15366 14205 15769 16437 238 8803 14931 
11032 866 12954 14352 17729 622 14054 6049 13992 
11919 11255 15123 12678 1421 669 7339 17696 2081 
10362 8359 848 1013 10527 8833 10605 5323 14256 
12549 1825 5698 662 15209 5606 8089 4156 10116 
9082 14520 9127 8867 9268 9698 3171 39 7994 
10465 1334 4276 8103 15776 13372 15618 2746 16101 
7499 4918 10252 5994 9683 7769 7941 3613 4749 
7405 8604 17188 7287 17326 11774 14148 16711 9075 
17503 336 9387 1613 8216 14700 7064 6913 15587 
16756 4841 4143 233 16971 16946 882 729 307 
7030 4386 15921 5613 1958 3473 7731 4733 1300 
4132 9159 16709 16177 10704 6985 10278 11938 9143 
10110 13048 7308 2697 5155 3432 3771 2012 8741 
7327 6948 9919 8459 555 15254 6043 2352 3879 
567 8879 8545 5338 11054 6634 2970 10623 13522 
3263 8696 2937 9293 12162 9601 2768 6954 7812 
17782 2434 13074 417 2172 7641 1959 2494 3670 
8299 3989 14930 12462 8074 5198 1655 10475 13947 
11687 10274 10535 5125 3386 5381 4713 3530 4497 
12627 2239 6887 13198 3060 8863 17335 4158 6067 
6554 3574 737 7529 10650 4072 9487 3848 4603 
11609 11443 6520 352 1618 9431 9629 6123 6782 
1692 10342 5515 6647 5043 17119 8815 6485 2628 
10321 4830 5189 6115 11889 7736 1451 9833 3575 
263 4498 3740 3695 6192 3872 3741 5108 1442 
11021 9042 14338 11063 1788 14307 5885 5592 13390 
5171 2773 697 524 9180 1202 6552 4637 386 
2890 17718 3600 287 1922 7428 182 7498 6893 
2018 3837 17307 2969 8924 1543 1227 5192 3733 
14671 4878 5566 5569 7795 3907 14577 9923 2234 
4782 852 7858 6581 2283 8750 4896 12555 511 
14611 3579 1938 3161 12219 376 9371 96 3012 
5498 12759 1639 5031 10072 7512 2123 4220 1498 
6592 7357 13856 9620 4391 3915 2797 711 1307 
7751 11174 943 3841 81 2222 5534 8028 12202 
11824 5070 6800 350 9994 6209 4977 672 366 
2445 1200 5423 2023 7629 3023 11576 8417 1329 
7708 8594 627 6589 1963 4063 1582 7810 5359 
5707 14715 4672 5924 12065 10270 15098 16234 3869 
11027 16760 5808 8484 12622 165 1438 13263 2550 
8082 12315 14133 7460 8541 16316 16223 13218 13869 
3696 2054 3648 11772 1076 1070 3463 2503 5224 
13368 10413 17420 2894 15238 11343 1194 9073 16006 
6084 9820 8094 10097 2221 8388 11652 12656 2703 
5074 1987 7733 5663 4404 2777 3099 6530 4904 
4604 2914 11971 8518 17701 11324 6366 5891 17394 
5903 15199 1272 8488 14957 15311 14357 11592 8940 
7314 9076 3048 12755 5492 8134 9283 15442 7623 
10271 6466 7269 10202 8445 12633 13488 14852 12227 
7180 12137 7557 2057 12632 1119 11374 16487 17154 
8969 8616 12618 13598 11415 12461 5216 8615 6261 
4190 158 4477 217 16397 306 9858 8989 7183 
17129 13172 10670 8443 16950 16923 15985 7429 8658 
7866 7932 12990 15512 12014 8009 5530 14490 9655 
11915 14928 11625 17152 16076 13997 6928 9765 11375 
9801 13650 5138 11154 3084 11388 8227 13009 15538 
16965 4240 6053 13895 16885 16289 3819 14498 11299 
17298 10877 9041 17392 4474 7165 6981 10102 4754 
9681 10618 11549 7646 14163 13270 14673 812 17182 
12037 5677 12216 11699 6289 7880 1141 15748 4430 
9339 699 15427 13802 16009 16573 16545 13039 14016 
12011 11428 9526 290 8779 4025 11093 12463 11827 
939 12566 13897 14895 3407 9795 16502 7284 4539 
17267 14129 17694 16438 16157 16078 4683 1995 1494 
1993 2867 16249 14856 11561 9749 10061 11315 8011 
37 6 8880 9767 14254 10876 11904 11096 4320 
7955 13089 577 8454 17804 7555 10586 1640 5434 
3083 13389 9761 6587 6277 16866 4562 12055 6329 
1845 17283 15686 7332 16032 11329 606 8248 14322 
16768 12752 10471 13416 1313 4101 8801 9168 10463 
16629 7341 11951 1879 10930 647 7444 15663 15092 
13687 13100 227 16657 2262 1412 11071 1370 16837 
12114 5527 1220 8222 1112 9616 3447 17583 11764 
15192 3049 7124 17321 9969 9058 15444 11898 12068 
14285 3425 5798 13495 11418 4979 1742 9841 6573 
14436 14271 6153 3940 12802 1990 3450 5143 7599 
1276 11816 15047 5589 6682 4102 3775 4083 8344 
12242 11984 4098 1331 14120 6851 2638 6065 12070 
1074 12909 17564 17840 16014 16254 922 13631 7763 
15605 9634 11504 8446 11577 10567 14614 10264 9063 
17170 4748 7978 4864 15043 1281 10040 1689 6120 
13027 8262 5915 8502 13113 11863 1195 13244 106 
6704 12006 3374 4563 12421 9880 11566 8840 8830 
683 3330 12373 15509 16416 17677 13178 3009 11695 
2275 10497 8846 4742 5303 687 818 11414 17685 
4592 4453 9414 9420 12289 10118 15915 11184 2059 
11953 1296 2119 4612 3683 6162 5376 17618 5963 
9446 10345 5585 10395 15105 10212 2987 14464 7173 
3531 918 11593 4422 6271 3260 4146 8724 7934 
6274 4397 5060 1106 9289 17289 11432 674 1833 
17616 16479 8023 1475 16291 11858 10518 880 12184 
932 11962 8428 4282 12154 13946 3399 4155 3835 
5435 8890 11817 15327 12235 13519 13155 2215 1238 
5961 2253 1497 2335 15052 9705 17258 10227 17124 
6356 10437 7364 17628 340 1931 4410 7797 1433 
4684 6630 6071 12764 3966 5150 17435 4582 12074 
930 6023 12381 5000 2631 7049 10510 16481 5018 
10971 1854 3896 2844 1006 4960 4943 16661 7217 
10093 8085 2282 2330 6161 17023 12119 8732 16465 
13220 5090 13822 9081 9125 11937 5211 15377 8668 
17508 14795 16527 10049 1631 5391 384 8792 8693 
14998 13790 14485 15001 6082 8909 4815 118 4556 
9149 2370 4847 16126 456 11143 9183 13411 5533 
17263 792 6883 13689 451 9625 17183 10583 10833 
201 3325 12677 4467 3446 5342 16596 6143 2874 
15449 17359 228 13037 15650 17301 3440 14790 17812 
14343 2227 14455 12140 10620 10090 17047 2025 3924 
15241 1499 9379 17157 10349 5410 14152 4586 10865 
4195 14215 12603 17688 2818 15606 7012 17438 4272 
2376 4542 7394 10279 16743 10639 8530 1779 5587 
2576 15947 17773 344 7929 430 9338 989 6951 
4503 10494 11295 6663 4611 4308 9803 6935 14269 
1404 1384 7262 5263 14771 3927 16995 6243 3232 
10844 7638 8622 8021 9071 10205 6563 10073 3578 
7524 9500 9669 7525 14330 5877 16165 12312 8167 
12848 17437 7455 7926 3118 9080 10591 8575 822 
5421 8682 9409 11195 7162 11802 17824 16106 2544 
14949 14244 9579 9163 15255 14879 5478 1102 3303 
7691 17418 3626 6625 4703 17667 9623 6973 10537 
1527 11895 10979 13810 11928 15761 15152 11697 8116 
9702 7340 7008 7578 10747 8858 5979 6712 4607 
16210 8669 17538 9843 12141 13538 3946 6091 5554 
14364 12579 4698 8366 3128 7749 3499 7568 6932 
15287 7178 17363 1644 11162 9505 10871 728 13132 
9531 13264 13237 11312 2092 4290 3601 4315 12479 
470 2363 11036 1350 12498 564 7654 11679 11532 
9853 3815 5131 17001 12451 4799 9033 3631 4941 
4015 4680 8013 17726 16048 8905 14320 13255 5617 
17314 7514 2294 10037 11835 13349 4819 2913 6335 
11839 3542 16161 6744 3334 9171 14934 11980 17570 
13506 17457 16455 14136 14726 9577 16478 2495 6691 
15281 15886 16443 17633 5334 6126 7517 11498 9750 
10432 2226 13174 14380 13957 12405 12507 5989 8425 
10683 7974 14130 10199 4692 2411 12920 16844 8421 
6455 3167 16141 9935 11547 11742 14335 9052 13932 
14864 15920 4049 10218 13285 13906 13627 10730 16238 
3073 4443 16698 1066 15685 16632 12266 4794 10515 
13214 17005 15138 2353 10939 3802 155 1978 13618 
3823 16464 7896 16497 14434 16080 3598 9715 11140 
11149 11056 12305 13894 521 10524 15381 9471 13063 
16669 17797 2070 367 8976 3430 6763 1111 7643 
14249 13167 15893 12781 13339 16851 10759 4010 3928 
12475 8926 14385 4561 14965 11363 16624 905 11192 
15383 12664 3135 11453 1280 9001 14739 14978 12671 
12108 10753 14708 13029 12839 9955 11787 16660 14470 
2870 16015 3421 14515 5863 13061 14602 7551 2291 
16494 15082 17163 13300 14808 7221 14874 11852 10403 
872 8081 16272 5693 14613 1894 1336 12914 2365 
11384 12813 4837 16796 15806 13003 15045 15533 12890 
12429 16618 4281 11796 8739 8650 10312 1827 16049 
12889 14674 10972 15346 14260 10705 4978 17015 11407 
11331 10706 7881 5651 5991 16358 8528 3864 10631 
8379 3207 1432 5273 12306 4546 11780 8235 15634 
14563 15905 12956 3698 17554 10693 5835 6611 6368 
5080 3371 7505 4450 13439 5360 4865 16499 12369 
13892 13651 17504 8078 9515 14195 10976 5899 11557 
10275 1550 2770 10585 9161 4134 1846 16128 14592 
2557 16450 10048 14628 6095 8083 7953 1183 3132 
10076 10181 6631 11012 1609 2904 15244 12092 15078 
7640 16652 4269 9325 14701 5906 11393 302 16836 
13535 8041 15971 10180 7176 4058 11347 6793 17319 
1569 3808 6729 7507 9098 9798 11275 1787 11483 
2187 7135 3998 2737 4555 1474 8543 15678 14410 
2997 5091 16061 726 2610 5722 10201 3533 15859 
16702 5411 5818 2496 6828 7571 5190 13914 16047 
3507 17763 5560 10451 616 16345 15147 17732 8069 
5694 9630 3098 15498 2684 6665 6569 10298 1029 
6347 3427 14585 8169 299 3709 5577 6464 1748 
10065 4473 4043 3697 66 618 419 14552 5916 