# vtk DataFile Version 5.1
Generated by LIGGGHTS
ASCII
DATASET POLYDATA
POINTS 17850 float
0.00592079 -0.0287219 0.00211378 0.00670915 -0.027574 0.00206738 -0.0138093 -0.0206722 0.00217236 
-0.00983226 -0.0170961 0.00214455 -0.0257787 -0.00828343 0.00229713 0.0265036 -0.00683442 0.00219904 
0.00243186 0.000715821 0.00231769 -0.0181374 0.0169106 0.00218894 0.00124295 -0.0293741 0.00222648 
0.00709907 -0.0285494 0.00208332 0.00798913 -0.0279369 0.00220872 -0.010931 -0.0272598 0.00196765 
0.00370904 -0.0273041 0.00210769 0.00221793 -0.0258335 0.00203665 0.00660677 -0.0217054 0.00207109 
0.0196683 -0.0216338 0.00198678 -0.00854276 -0.0213006 0.00195249 0.0158682 -0.0203481 0.00209787 
-0.0188281 -0.022407 0.0025795 -0.0113326 -0.0214169 0.0019113 -0.016827 -0.0217936 0.00220511 
-0.0125445 -0.0208362 0.00197023 -0.00983804 -0.0201477 0.00204121 0.0108318 -0.0200008 0.00210517 
0.0150642 -0.0195292 0.00221671 0.0213789 -0.018268 0.00211642 0.0178276 -0.0191207 0.00196369 
-0.0127012 -0.0190315 0.0023138 0.0154213 -0.0173379 0.00203235 0.0186869 -0.017699 0.00200241 
0.0174542 -0.0169303 0.00205753 -0.0147382 -0.0158179 0.00208706 0.0270155 -0.011462 0.00203557 
0.0263192 -0.010549 0.00208304 0.000664788 -0.0100944 0.00223264 0.0273932 -0.0104464 0.00207192 
-0.0279672 -0.00914773 0.00263455 0.0246358 -0.00827983 0.00232648 -0.0256683 -0.00715291 0.00208775 
0.0241283 -0.00727562 0.00220071 -0.0286595 -0.00640496 0.00213908 -0.0276979 -0.00703886 0.00213927 
0.0287447 -0.00580375 0.00231248 -0.0275205 -0.00507875 0.00208533 -0.0254965 -0.00540658 0.00213123 
-0.0214457 -0.00588771 0.00197636 0.0272445 -0.00454735 0.00228209 -0.0243068 -0.00493649 0.00206385 
0.00162791 -0.00352739 0.00210793 0.0025121 -0.00413544 0.00207966 0.00601037 -0.00362419 0.00228048 
0.00522619 -0.00264691 0.00225505 0.00259625 -0.00308042 0.00227717 -0.0214452 -0.00147361 0.00216222 
0.000505136 -0.00137155 0.00209887 0.00144381 -0.000714014 0.00218036 -0.0205747 -0.00014028 0.00204322 
0.00262319 -0.000433073 0.00255949 6.80428e-05 0.000561406 0.00230791 -0.0152257 0.000890285 0.00194681 
0.00121013 0.000791775 0.00210745 0.00285452 0.00207533 0.00224774 0.0125725 0.00163925 0.0021759 
0.00186311 0.00270393 0.00241235 0.0144043 0.00233494 0.00218575 -8.92647e-05 0.00363675 0.00236585 
0.00228354 0.00389432 0.0023626 0.00640456 0.00347465 0.00229817 -0.00934973 0.00432991 0.00216526 
0.0101961 0.00501318 0.00200899 -0.0165634 0.00608162 0.00233697 -0.00614261 0.00522322 0.00200815 
-0.0274145 0.00710201 0.00181941 -0.0111283 0.00718386 0.00217493 -0.00983523 0.00718801 0.00233032 
-0.00705593 0.00848589 0.00205476 -0.0275709 0.00809931 0.00213148 -0.0231403 0.00821505 0.00194602 
-0.00365792 0.00774205 0.00196891 -0.00811198 0.00975306 0.00219783 -0.017282 0.0104718 0.00214646 
-0.0148945 0.0105922 0.00232868 -0.00971736 0.0100863 0.00212815 -0.00948936 0.0121394 0.0021715 
0.00254186 0.012281 0.00226122 -0.019053 0.0120371 0.00220612 0.00804381 0.0136674 0.00236538 
-0.0138641 0.0152783 0.00195925 -0.0131601 0.0161322 0.00214044 0.0227155 0.0162177 0.00250724 
-0.0219323 0.0172832 0.00218117 -0.0191801 0.0176377 0.00206029 -0.0170093 0.0168345 0.00203038 
-0.0010099 0.0175765 0.0021689 0.00120578 0.0174838 0.00212885 0.0086282 0.0166232 0.00217684 
0.0228057 0.0174456 0.00189968 0.00191659 0.0183323 0.00209213 -1.18884e-06 0.0194871 0.00211375 
0.00414505 0.0197608 0.00204936 -0.0191065 0.0203883 0.00202829 -0.00445181 0.0205354 0.00220029 
0.00164268 0.0206552 0.00215531 -0.00128116 0.0212021 0.00205826 0.016254 0.0209238 0.00189215 
-0.00720832 0.0222206 0.00207104 -0.00629549 0.0230917 0.00214052 -0.0156873 0.0221374 0.0018298 
-0.00454033 -0.0287121 0.00197038 -0.00140759 -0.0292986 0.00200474 0.000123067 -0.0293596 0.00206765 
0.00294874 -0.0293068 0.00214136 0.00396713 -0.0290409 0.00254789 -0.00624487 -0.0287413 0.00182439 
-0.000166112 -0.0283082 0.00223675 0.00179552 -0.0283528 0.00195513 -0.00968088 -0.0274269 0.0018796 
-0.00219133 -0.0273769 0.00186943 -0.0122199 -0.0266937 0.00235547 -0.00115624 -0.0270795 0.00186888 
0.00066623 -0.0270495 0.00194691 0.00751664 -0.0268831 0.00240339 -0.0093482 -0.0262733 0.00193443 
-0.00740306 -0.0258398 0.00190663 -0.00521906 -0.0258956 0.00169209 -0.00186284 -0.0258341 0.00189444 
0.000671017 -0.0259431 0.00212771 0.00527364 -0.0260324 0.00213444 0.00834669 -0.0262278 0.00205742 
-0.0113425 -0.0260062 0.00210716 0.00319624 -0.0253164 0.00226757 0.00486003 -0.0249502 0.0019196 
0.00680081 -0.026127 0.00206707 0.010282 -0.0245126 0.00183053 -0.010151 -0.0252835 0.00205646 
-0.00889044 -0.024699 0.00202777 -0.00727833 -0.0245879 0.00192545 0.00200878 -0.0237896 0.0021911 
-0.0140053 -0.0240213 0.00199947 -0.00991169 -0.0241392 0.00198054 -0.00690252 -0.0235095 0.00193844 
0.00376657 -0.024194 0.0021338 0.00609026 -0.024794 0.00197156 -0.00795798 -0.0231365 0.00197947 
0.00328812 -0.0227404 0.00199767 0.00437261 -0.0232314 0.00220001 0.00569714 -0.0237145 0.00209599 
0.00683381 -0.0228879 0.00213084 0.00836928 -0.0234233 0.00209294 0.0115603 -0.022849 0.00194032 
-0.00894432 -0.022382 0.00198273 -0.00651094 -0.0220935 0.00193657 0.00136397 -0.0216977 0.00188254 
0.00415067 -0.0216668 0.00214624 0.00507406 -0.022453 0.00184421 0.00772403 -0.0217117 0.00209232 
0.010141 -0.0223193 0.00202275 -0.0178364 -0.0229781 0.00183046 0.0122987 -0.0218542 0.00197273 
0.0157829 -0.0221914 0.00208039 0.0174494 -0.021862 0.00194921 -0.0116496 -0.022424 0.00225647 
0.00677229 -0.0201914 0.00212058 0.00863129 -0.0205679 0.00228984 0.0116493 -0.020872 0.00203288 
0.01953 -0.0205416 0.00214368 -0.0211963 -0.0203329 0.00228558 -0.0200131 -0.020245 0.00212304 
-0.0160898 -0.023478 0.00174946 -0.0136548 -0.0219458 0.0021456 0.00556509 -0.020391 0.0020296 
0.00974208 -0.0202635 0.00201316 0.0127312 -0.0205009 0.00201447 0.0141432 -0.0202103 0.00200047 
0.0171886 -0.0201676 0.00205487 -0.0105057 -0.0193396 0.00211477 0.0126638 -0.0190194 0.00210303 
0.0162802 -0.018967 0.00190356 0.018934 -0.0194006 0.00208894 0.0227002 -0.018629 0.00205261 
-0.0212165 -0.0184973 0.00196973 -0.0200745 -0.018977 0.0020761 -0.0165531 -0.0204959 0.00183848 
-0.0159178 -0.0190957 0.00201493 -0.0118024 -0.0197066 0.00233404 0.00239036 -0.0188213 0.00176297 
0.00457129 -0.0183382 0.00197452 0.00752022 -0.0183326 0.00217329 0.00861821 -0.0188443 0.00191586 
0.0114353 -0.0186008 0.00225612 0.0138555 -0.0190559 0.00207978 0.0197244 -0.018673 0.00245744 
-0.0137794 -0.0195572 0.00219698 -0.0115187 -0.0185995 0.00204838 -0.0102684 -0.018184 0.00214512 
0.0104178 -0.0180968 0.00198429 0.0136624 -0.0177495 0.00198056 0.016418 -0.0178045 0.00217216 
0.0212435 -0.0172106 0.00219947 -0.0162799 -0.0178532 0.00205525 -0.0082632 -0.0182046 0.00184749 
0.00807889 -0.0174681 0.00174874 0.0124001 -0.0159669 0.00189871 0.0188226 -0.0164859 0.00208848 
0.0196839 -0.0172355 0.00207121 0.022813 -0.0169434 0.00186868 -0.0143594 -0.0172052 0.00215564 
-0.0107248 -0.0164534 0.00225588 -0.00865366 -0.0169636 0.00192506 0.000862705 -0.0163909 0.00235096 
0.00630787 -0.0152184 0.00182152 0.014239 -0.0152553 0.00177177 0.015748 -0.0163218 0.00190521 
0.0193447 -0.0154523 0.00183918 0.0200983 -0.0162181 0.00184615 0.0211878 -0.0161254 0.00185096 
-0.0191324 -0.0152426 0.00172906 -0.015636 -0.0167219 0.00199058 -0.0136812 -0.015727 0.00231162 
-0.011766 -0.0158849 0.0020914 0.0117525 -0.0148486 0.00210104 -0.0230567 -0.0145165 0.00165307 
-0.0128638 -0.0149187 0.00234216 0.00494636 -0.015463 0.00192325 -0.0151461 -0.0144058 0.00199398 
-0.0100535 -0.0142919 0.00207976 0.0231064 -0.0139117 0.00191393 0.0243125 -0.0127885 0.00198765 
-0.0267696 -0.0119322 0.00224728 -0.0251739 -0.0119381 0.00196874 -0.0230652 -0.0107165 0.00180096 
-0.0145629 -0.0120401 0.00189269 0.000829086 -0.0112327 0.00218285 0.00194505 -0.0112305 0.00199086 
0.0213453 -0.0113605 0.00192804 0.0224001 -0.0116019 0.0019598 0.0246586 -0.0116198 0.0020007 
0.0259183 -0.0115976 0.00208827 -0.0256961 -0.0108542 0.00202084 -0.024136 -0.0111242 0.00183795 
-0.00235065 -0.0103873 0.00226747 -0.000349436 -0.0111237 0.00218507 0.00254023 -0.010038 0.00207295 
-0.0273699 -0.00997841 0.00214868 -0.0237569 -0.0095886 0.00218628 -0.0225918 -0.00943187 0.00203358 
0.00725924 -0.0102469 0.00165819 0.0195076 -0.0105139 0.00167004 0.0229836 -0.00984696 0.00219802 
0.024475 -0.00957581 0.0019679 -0.00199887 -0.00923336 0.00211934 0.00115813 -0.00829751 0.00210044 
0.00198205 -0.00907318 0.00204067 0.0268716 -0.00920232 0.00230492 0.0226709 -0.00839384 0.00208071 
0.025974 -0.00856902 0.00228916 0.028172 -0.00847221 0.00218318 -0.0281852 -0.00809529 0.00226846 
-0.0267229 -0.00764447 0.00214637 0.000685973 -0.00725933 0.00200725 0.00258135 -0.00776012 0.00217562 
0.00350942 -0.00692566 0.00192767 0.0230995 -0.00715456 0.00190782 0.0284511 -0.00728016 0.00244545 
-0.0264461 -0.00619485 0.00233764 -0.0246069 -0.00623894 0.00204715 -0.0238488 -0.00771438 0.00206891 
-0.0227496 -0.00739007 0.00206947 0.00120952 -0.00628066 0.00185574 0.00228064 -0.00663889 0.00200494 
0.00559769 -0.00675408 0.0017555 0.0253581 -0.00646985 0.00253053 0.0276057 -0.00609327 0.00216596 
0.00413268 -0.00591315 0.00191458 0.0229198 -0.00596774 0.00234021 0.024113 -0.00605393 0.00239223 
0.0251805 -0.00534018 0.00219859 0.0263564 -0.00559307 0.00226828 -0.0207467 -0.00493324 0.00195582 
-0.0102604 -0.00548489 0.00284239 0.0037394 -0.00486072 0.00219424 0.00505834 -0.0052204 0.00219511 
0.0263429 -0.00392756 0.00206774 -0.0253094 -0.00421155 0.00219039 -0.022286 -0.00383752 0.00221493 
0.000419712 -0.00452032 0.00200194 0.00142167 -0.00510864 0.00194334 0.00485081 -0.00376948 0.00231252 
0.00601248 -0.00469576 0.00224051 0.0253162 -0.00362496 0.00222105 0.0288202 -0.00468693 0.00225054 
-0.0291351 -0.00374151 0.00212945 -0.0274694 -0.00366157 0.00215129 -0.0210818 -0.00382314 0.00202794 
-0.0187625 -0.00356518 0.00216162 -0.00129883 -0.00423572 0.00159672 0.00820293 -0.0041076 0.00199337 
[...]
POINT_DATA 17850
FIELD FieldData 6
id 1 17850 int
4869 17092 13437 11058 4798 7427 9892 3004 3541 
5764 3733 8370 10457 6301 10887 927 12755 4845 
8541 5503 15175 2999 5353 3543 8336 5839 16409 
2202 16778 17036 12661 17310 11317 17474 3101 10471 
5218 9334 14297 15544 3028 3257 17331 9140 2102 
1997 13903 16864 16815 10467 4684 7797 5940 913 
6705 7106 840 9799 7942 12308 4407 17421 9141 
2668 2160 2310 2246 12002 7455 4731 16854 3491 
12221 7726 2913 16928 11857 13196 5334 5404 8739 
3469 11881 11313 13872 1767 14380 11032 581 5698 
4723 9561 3971 4058 8894 11980 5899 10972 12024 
2746 9312 3045 6891 2765 16643 1787 10180 17789 
12692 10898 5116 12252 9180 5484 9763 7498 924 
4591 8835 776 11137 8770 7389 4552 559 511 
3314 3395 10477 8196 4630 1354 11542 1840 1746 
96 3150 6106 107 9371 10281 8466 923 2054 
5692 10020 10660 1316 8927 9003 2388 11772 10570 
4633 6566 4215 4470 4705 9872 8569 6104 3869 
15088 13368 8954 4485 8131 9253 1000 7751 9390 
339 15492 9282 2702 6084 10396 5487 6330 9794 
13161 2028 12940 7862 11027 12506 7165 12264 7917 
2269 10927 2316 6571 8698 13742 10102 7269 15427 
17478 3300 12332 8496 6907 4300 14483 5997 14357 
10798 3460 242 17396 3728 16108 6177 15948 16487 
14194 7460 14662 2327 8000 16574 2265 2633 16157 
12942 16767 16424 8415 7646 3029 16019 13716 11758 
16768 11055 11421 9170 6053 597 8257 16382 14120 
197 5690 1370 6105 10673 13655 15575 4365 13684 
16400 10642 9058 4341 17387 3083 3110 9907 1541 
2620 17700 11456 3186 3645 11778 15139 11612 6730 
3374 7903 14720 1756 13575 13143 13195 8168 3775 
8492 3231 5403 15994 2594 2103 11253 8854 4040 
16955 16217 8595 602 3330 4102 6391 6603 2541 
15627 683 12074 1466 5013 3148 1966 16526 6471 
6670 922 3737 5915 12233 11390 11937 12723 5026 
7016 9289 12008 12516 8843 5268 3235 14181 9227 
7925 3298 4653 5854 4266 11580 16389 7673 2264 
1762 8401 5252 4726 6356 17023 4131 1722 17078 
4467 4624 11587 9300 11667 15241 698 2319 384 
16484 17047 9267 6229 7524 9197 10243 10833 4621 
5307 6020 16974 6274 607 11060 9416 2435 2818 
7579 1831 17632 6575 4308 4846 8314 1199 16435 
198 9859 8087 1152 11087 3941 16281 4986 575 
5926 12057 14311 16529 10328 6350 4272 16363 17123 
4155 16614 7636 8705 11307 15466 2719 764 5346 
3349 12142 8623 703 11894 4953 6993 2945 272 
4061 9596 14879 1228 3230 2145 17836 9294 17619 
8993 13476 10219 15606 17095 9263 5058 1128 13770 
11835 7426 532 855 9302 3542 8042 10774 16937 
13962 6368 12920 16483 10113 9507 9011 8803 10635 
14249 6892 781 6335 3601 6744 5872 7755 17029 
17081 13906 15374 17285 9529 11989 13578 7654 17801 
15524 12541 13132 5178 3318 11875 15975 17660 15120 
16179 2146 5271 3660 17816 277 4128 15209 8457 
17322 2578 8976 3421 7643 13987 1802 6455 3598 
12782 4822 11924 9683 7328 5637 16564 9506 16632 
17726 16244 6947 13362 3802 10890 8554 14739 15757 
1668 12316 2128 10491 4506 7334 11969 17607 13920 
14959 11985 13138 6400 9707 16451 10262 17271 13894 
9816 3698 6095 467 12442 427 6718 5960 12914 
17749 12405 872 192 7544 5148 13534 7395 17498 
11655 2523 7542 1894 2081 1334 17326 14054 11280 
14148 9199 2036 1954 4569 4450 6454 7176 2187 
8968 4902 6631 848 10326 13892 14180 6607 859 
15680 2243 10436 5613 7324 17188 11774 15618 6481 
5169 1495 3280 9086 4276 10980 7499 13784 4364 
783 4248 12263 7687 14786 13396 10761 299 7287 
14930 14132 11931 8380 8312 17833 13153 3808 2697 
8323 8618 3709 7569 3165 16635 7329 4268 206 
12785 9919 12395 8169 11869 3386 7760 8482 6262 
1615 7317 697 4230 5773 3748 2251 5171 5625 
1485 4566 2018 1101 1657 4192 4828 1227 5192 
2124 5314 3837 652 4910 1078 11435 4614 1933 
6231 11262 9490 6298 3468 1498 4523 6451 10815 
6581 5498 8484 5407 5161 3579 2027 3876 8988 
666 2797 1307 8908 12113 484 13646 146 11553 
5746 16469 11971 2300 6800 350 3754 16560 2276 
10533 6869 16151 11358 10087 5826 351 4604 4038 
7582 5224 12198 2178 12630 6160 3914 4977 8813 
8594 473 4377 14048 10202 17778 9889 2571 2184 
10425 15878 8047 11803 8400 11976 14106 12518 10100 
15098 10336 6168 17398 3696 11258 1462 13747 14928 
8136 9482 8659 15578 14232 202 12777 3084 12536 
1344 3258 15834 8420 15797 16421 17695 1828 1457 
12047 7213 5578 15665 13009 16583 5157 14566 9708 
823 4816 12216 6981 14881 4458 12656 12561 17698 
9193 12657 11396 13386 14102 1272 7181 7441 4025 
1247 4474 6325 6289 5368 8798 1141 16042 17611 
8227 13699 17152 8969 8536 6640 1194 5097 6401 
11219 15630 14109 5074 12576 16262 12461 4767 13326 
7197 17182 300 2159 3239 4062 16243 7183 11549 
17424 13871 16720 8445 11411 17805 17206 6317 2867 
12817 12681 8934 2355 12463 11329 14856 124 13416 
17149 5170 13022 8937 10877 10805 5183 116 7107 
5115 7169 14976 2791 10944 1392 14650 1287 15961 
11242 9526 4428 17283 2958 4070 2189 5055 8011 
15440 8899 13172 14760 16597 15908 16573 17755 11130 
3405 10258 3816 9944 1575 15646 10014 11561 13438 
1811 12752 16670 14163 17682 10670 725 7955 4976 
6805 16037 2651 8551 11888 2713 11380 16028 16765 
12821 7908 12739 10419 3523 577 4218 5291 11229 
16076 8868 10889 4293 606 16657 4835 12206 5343 
10861 9897 17261 10507 122 10930 9104 16551 11764 
10586 12338 3368 2262 1549 11830 16491 7688 11095 
15167 12847 13895 1879 9616 15165 2171 2836 161 
7140 10847 10988 6011 17463 5623 15140 16193 6584 
6188 11951 11434 16180 11185 8992 771 12303 6638 
1800 13974 5880 3147 16245 5794 12195 13377 13105 
11923 12440 16152 12158 11071 12624 17693 14752 9483 
11984 11703 13560 12802 8621 17018 10920 17838 11974 
2806 2979 11684 2683 5798 7472 17170 2046 2049 
17164 14024 13283 5753 3313 2472 7195 2686 2987 
6094 10957 6266 9756 886 12056 1343 14668 15290 
4411 10293 1482 10272 2440 10497 14572 17328 9002 
2929 5211 1678 16953 8175 4582 14871 2678 3572 
3900 1929 346 1412 8577 11823 6875 11855 2292 
9570 14079 890 7281 5572 3903 7115 9819 17484 
982 13631 17673 8740 11586 9278 11436 2673 6935 
11760 5725 6546 16357 12486 308 4296 13471 5929 
8502 7763 14268 16213 15000 11972 4410 3534 4973 
7650 4933 10924 15214 6547 15377 13552 17086 3399 
4171 9414 2011 12761 6572 6501 5144 6728 5557 
2419 6684 16126 9245 16863 11722 5963 1106 12381 
6921 15875 12244 4475 2059 17172 8282 692 7841 
780 2881 6540 6803 9306 16748 5060 5387 4772 
1612 14146 8469 16291 3051 2337 11233 17813 2424 
9316 1801 6588 930 4189 8524 12441 2347 4765 
12922 983 15658 16744 15164 5901 6082 7832 12677 
17438 7055 2862 6868 7361 15275 10170 2237 5241 
113 7596 2992 6951 11605 10902 5129 1786 4087 
4024 5391 1235 2233 3529 17264 7363 2658 10494 
4815 5489 12078 9989 10537 9017 73 1020 12312 
17167 14719 16197 1102 8139 7012 9071 17418 4503 
4611 2266 12604 6973 9831 3762 6023 13186 14833 
14347 1372 4290 9080 3568 11618 11735 7920 14047 
5421 9169 8182 10799 11757 3663 2414 5326 654 
3417 12995 10073 15046 17567 1320 10741 2296 11312 
3678 5438 6111 8605 12479 5655 3334 16886 9399 
13191 17383 12507 4517 5844 19 2476 14179 6243 
16353 13131 11438 10952 2639 15510 6440 17844 11325 
1806 11320 15453 4819 1671 2092 4439 2813 13704 
2387 5191 13506 11883 15080 6823 8669 14381 11681 
9916 2510 13397 132 12567 10306 13355 8923 7852 
10405 17810 11739 13855 9202 15866 17259 17819 6787 
13384 15789 13151 2604 186 6644 15179 12883 3361 
7154 8662 11442 6190 15855 17008 5620 12579 12494 
14272 9555 17410 3827 14506 9577 9650 12278 779 
14242 14528 7871 13735 2271 1519 16173 1239 14309 
521 6494 3377 16455 5523 2487 2695 11691 7514 
8081 14931 9119 10811 1336 6126 2829 2084 5174 
14944 16510 10055 14335 17506 8392 11782 4813 5584 
16036 11610 14919 11309 12241 16423 11498 10420 16004 
17600 17457 3938 3823 16528 14364 14434 9162 1066 
10407 12816 16083 12018 41 12334 15188 13530 12608 
429 14619 16272 15702 17407 814 3112 15614 13061 
13531 6009 7207 17270 16049 9349 16927 15957 12302 
6903 4944 9937 8650 4852 15648 15685 8297 4561 
11983 2353 2421 669 15946 9548 88 2840 6403 
2291 5471 12593 14997 12954 6905 15801 7800 7221 
722 3158 662 2514 8241 4905 11709 7339 10312 
12475 8596 12021 1013 13059 6049 7228 16935 13215 
16015 3171 336 307 7238 1518 3701 4156 3207 
10601 6991 5273 11368 13827 13348 5806 800 1825 
12426 6413 10201 14059 7769 12143 7732 14518 13907 
2870 16344 12678 2610 4110 15003 5912 960 7030 
16228 9082 15776 4805 12655 11919 7350 1421 10544 
16915 1170 5398 9823 7202 8089 3064 16012 5360 
14352 17059 6606 6611 8112 841 13395 3098 5818 
5155 10986 4837 10835 15689 17127 15769 17219 10252 
15147 10320 1300 6828 17265 15471 11332 9072 15163 
15379 1464 2727 12734 16947 13992 4298 3443 10110 
2496 9165 8287 15967 8694 13158 2937 2557 10820 
12162 2768 4925 6441 10704 10196 8620 302 9192 
8069 9159 14936 5934 1972 7864 8547 6946 10535 
5577 4217 8696 9991 8299 1655 12464 11443 266 
5512 5719 3580 12584 1692 3961 12751 5135 2131 
4319 3690 2773 2890 1407 14168 1132 706 5809 
1860 5445 6586 5643 17718 3600 6893 5861 775 
287 5008 3296 1821 3161 7822 7283 3588 5959 
7428 5200 6444 1345 463 2416 10941 6348 810 
1554 1922 4637 182 8512 2234 3388 1938 15698 
6365 4893 3012 5566 4896 11228 5569 3196 12005 
4037 4090 11966 5070 324 11740 1014 8773 376 
6292 3406 2199 12147 14577 2630 7715 4220 6662 
8238 14389 6727 9638 15996 17360 3841 6747 1532 
13617 558 4234 1963 5092 11187 6881 3047 5305 
2891 3886 6357 15708 816 8331 11126 5274 2418 
7629 13772 3463 6149 8755 8494 7320 637 12315 
298 15289 5331 672 3436 6174 11576 10715 7623 
8164 10154 2917 16965 17154 15430 6180 7116 14661 
9994 3099 2863 9274 3367 6778 16307 1923 7653 
8210 4744 4121 1836 10702 14316 16858 9628 5355 
3048 12137 2500 8713 12545 15442 2384 14490 17165 
5903 4196 12716 11625 15691 2201 2894 2652 9615 
777 11423 9603 12226 15576 17088 12153 9858 10270 
10095 5891 8075 12033 15007 8212 16871 16316 16139 
15238 1380 5340 1732 7932 275 4775 5582 15720 
11699 3840 8989 4873 6912 2214 9310 9151 552 
5663 9747 11669 1778 17447 9216 10903 11927 5507 
9690 5769 7586 10413 6366 10195 17302 4937 11020 
9661 15395 3040 12533 15112 627 1651 11343 10697 
9041 6396 16189 17445 16976 2611 8538 9258 6189 
8967 7314 362 17392 6116 7401 1213 11572 12654 
12399 2009 15616 1607 14890 7385 15985 595 5151 
8584 1026 7880 630 14615 8490 4536 9381 13820 
13741 4381 13994 17274 2946 14317 10319 11014 9607 
8615 9462 9943 11827 16740 17226 8688 15538 16146 
12594 16328 53 10305 5964 11645 2205 9412 3177 
10848 2354 17760 16154 1276 304 5889 13897 17067 
8501 14895 3407 16369 16622 13270 14016 10888 7872 
12378 12299 17754 1217 14548 12502 11397 11662 15321 
17240 14529 12771 16377 4683 9069 6107 11842 11093 
10365 1968 11749 9339 17817 14055 17608 18 10488 
10950 6880 7989 16134 14372 7402 4676 17349 1845 
7348 9532 17153 2134 1511 10555 15903 678 5047 
12297 12010 17699 7703 14044 11959 13802 16502 11997 
14717 10389 14300 9206 10729 8882 13089 3767 6557 
3344 12421 7112 7969 14605 1640 20 1414 16655 
10435 11169 15438 7028 11696 7058 10125 6959 13366 
10168 12182 2383 12070 6915 15503 2359 16186 9046 
8476 2520 13389 6438 8461 12242 7341 11410 13683 
12431 5833 7444 12796 14473 3423 2488 1980 8855 
227 14423 2553 4405 6809 4932 9767 3744 5446 
1870 14614 6329 4940 3398 10896 6380 9139 7332 
16109 17175 8549 11041 11744 11272 8104 10424 187 
1940 11184 7534 7520 3447 16208 10681 2119 7242 
8657 1063 1617 16008 12068 16981 15009 2805 401 
4101 16287 17389 5003 2293 15061 6851 6593 4612 
3683 1074 13482 7585 13908 15484 8671 7892 17622 
16301 13178 14271 6004 4402 880 3531 2638 3712 
10140 9684 2757 16098 6927 3860 6707 7442 921 
10553 13199 1780 5898 8846 2820 10198 1015 1990 
2664 8635 2648 11962 406 13027 8203 5470 14783 
8341 2442 6155 4667 3796 3392 7606 10212 3643 
5042 7513 5317 13244 13510 1433 818 6120 6462 
16254 10369 4304 6658 5568 11426 7700 9873 3778 
4942 10539 12957 7938 12642 10742 2392 75 1597 
820 2844 3766 11179 8645 6119 9721 5532 3121 
10136 5778 10135 14398 10114 8829 5290 16664 9189 
8305 133 4908 5607 5150 10 3304 15256 7362 
5748 7710 3271 3655 5027 2470 12935 11695 8917 
17159 6511 9651 11593 642 9973 17618 3264 1218 
13319 15597 1130 2405 2815 7659 7170 14464 12284 
1133 6291 6740 10331 10439 11635 1941 4126 5149 
2370 11536 11135 12500 14929 1675 12434 9244 10172 
1774 9446 5296 633 2738 9898 10518 5495 6792 
4817 4178 2253 8593 7631 14377 176 2859 6005 
3381 1399 14751 13449 10289 14681 9303 6080 6832 
11000 12646 767 6446 10760 5642 13184 1897 15166 
17288 16912 10117 4397 2751 1325 15418 4137 14208 
15327 14610 13519 3644 15307 4007 9125 3393 3974 
15233 16422 685 586 2998 12493 13670 11862 6682 
8262 10147 1760 16666 491 7855 14147 15615 3079 
16520 2887 11200 118 6052 4082 5638 8711 10279 
3410 7644 17157 13375 6007 6252 451 6161 5973 
1348 13220 5800 7309 16195 10971 8909 941 2223 
10641 1145 7394 12377 1608 14823 11841 1989 11430 
4051 11578 15272 15672 16753 13709 15843 13822 1931 
5702 9894 8121 5064 9900 5734 1285 9575 4006 
12786 9895 14021 2282 2330 1371 1926 9503 6208 
10495 13322 16182 14485 2433 14302 6405 3325 989 
6499 8522 4729 8575 12288 14269 7814 3329 2227 
2646 430 11078 17744 5984 10205 2371 8133 10469 
5721 4302 3020 5497 10049 4424 7071 17773 11615 
7860 15255 14213 7192 15579 7820 5199 13705 6563 
9208 14145 1002 16728 8682 8070 7231 6737 1583 
16995 7902 13232 5431 2308 1973 4720 4015 11036 
6932 16380 5705 8048 5732 1250 11956 17525 16084 
13349 16718 15341 16905 7926 3078 2587 4578 13811 
1662 4255 13721 15677 5739 9429 8434 9111 13890 
7672 3005 13264 13237 11150 17241 4941 1837 4181 
4922 12177 5392 5873 4743 17667 8481 2569 17769 
8397 4702 11775 6203 11996 9033 15817 1795 9551 
7205 2748 10379 3498 2573 13680 6712 6663 1735 
15287 10771 11532 17032 5587 13440 6776 5280 12690 
11939 11350 4969 7886 436 6862 16161 7251 10432 
2873 13171 15138 14726 11197 15487 16674 15864 5472 
4761 3166 12534 10309 10156 16443 4692 14542 9078 
7367 796 4354 1807 5616 1261 5119 16048 17511 
17363 15886 4380 10797 1105 14968 4818 3037 13207 
7443 11461 4799 1111 11535 7041 13698 7896 16836 
2108 12379 3934 3073 5076 12357 2452 5450 10440 
17704 100 14136 9657 15101 4827 2622 17631 16464 
16238 8912 13662 16851 1904 4443 11977 893 12266 
5348 14023 7939 150 14395 1263 4870 9843 17000 
17314 5835 2195 13333 17453 16080 14570 2080 16806 
3167 11839 3988 13480 84 6814 5989 2601 8425 
7974 10722 296 8237 17336 14296 7356 9398 4100 
9061 4023 1507 12372 9377 7038 10412 5521 8528 
14007 13614 15057 13567 14613 1406 4324 13428 9935 
10350 12305 1259 15478 17505 1440 12980 9576 13921 
10683 8198 270 10646 9220 7950 5083 12671 3864 
17612 4598 2325 17605 14385 17689 16650 17570 5785 
4909 5442 946 10661 5142 14796 5270 11214 17604 
14465 3234 4014 866 10770 9262 12997 15082 13236 
10756 13214 14621 1262 5863 8690 3044 3132 39 
15653 10362 14756 16494 12813 10789 905 9471 7930 
16148 2763 16169 4281 14770 5797 17556 16358 14524 
8691 7775 1108 3928 7976 8359 16786 17026 17005 
15025 1919 1710 1743 1537 10666 12436 7941 10275 
7405 17696 14674 2365 11384 2284 17729 17554 5994 
17681 14665 12683 1245 7507 8697 1432 1628 4105 
9362 55 12324 14196 9147 14505 15822 10976 11393 
5049 3200 7731 1827 10585 14520 10566 12369 10605 
11407 2106 4627 7372 10900 8041 3434 5790 9127 
13372 11656 17126 16514 8078 15123 10706 16437 14628 
3120 6514 12194 11310 4749 7118 11012 6621 579 
4841 8867 10130 15278 17697 14105 15375 13638 10054 
5848 11575 4349 4733 1437 1976 2821 17590 13651 
9698 9862 10382 1824 8125 9387 6937 5325 3605 
10484 14701 17503 13479 17324 10476 16107 5694 8545 
7135 17766 16501 15926 8409 2842 555 1959 10204 
4132 1844 4314 233 8863 11134 3263 10278 14256 
10048 566 5763 10210 3879 2239 2525 17763 9143 
8746 16061 5867 4158 7835 5205 5381 11398 13587 
5550 3339 11687 2172 4918 14750 12882 6067 5125 
11483 3481 1417 9833 417 289 6513 13025 3745 
13608 17119 5640 8034 9107 10565 14710 2066 14552 
6464 11063 13390 14085 15328 10929 419 1835 17335 
2352 676 2082 6110 9299 3574 2930 3676 6538 
4202 4669 802 3022 535 5240 11257 5920 12731 
524 8472 1232 5234 6796 43 3251 4812 5605 
4850 4769 4687 10302 1171 1552 15354 2545 3761 
852 1483 5045 4878 6273 8491 17654 10677 5480 
7921 17584 7357 4168 6313 2956 8924 3907 2101 
9923 4782 3030 3052 14319 6589 359 761 1851 
4391 4894 1447 3248 2883 5079 1999 6842 2782 
1951 4209 4231 14715 7177 3471 2123 12026 7418 
16682 9677 13620 12410 2222 1639 5232 14611 15502 
11824 3414 8301 9492 11606 102 3597 2445 3648 
5534 1623 15573 12065 711 7708 7459 8925 6914 
3233 17329 15294 4583 1140 6304 12622 3023 12832 
11800 17464 12612 7622 1185 1205 14000 11745 5359 
1076 14071 12551 5751 15033 163 11029 8824 15570 
13235 17530 3691 5455 4660 4993 145 5138 10418 
12107 7198 12595 17377 11173 14101 13643 15085 1582 
1008 4810 168 4501 2824 6975 7998 4318 11286 
12736 3964 3935 1045 11028 8568 6804 15936 17647 
12963 3201 9800 3137 5492 3738 4668 12990 6553 
10271 12495 6470 14658 14689 4370 15073 14869 11914 
6097 13218 6944 4190 9754 9502 16397 14035 306 
14113 6269 3250 14006 14501 8819 17129 8353 12121 
7733 7678 11077 10739 9560 1356 5276 3514 4477 
11136 153 11424 12014 3024 13844 7068 17847 17250 
13867 10614 7122 9652 12391 1785 252 12262 16737 
8853 14794 5542 3092 14125 3153 14550 6278 11476 
10532 8940 12227 16006 7735 249 1223 12825 1461 
10549 7555 699 11647 5061 2473 16816 13990 1877 
8651 7580 8127 2423 2941 13806 12300 17281 460 
10916 13868 17804 8039 5883 5037 14686 14616 8794 
8060 10669 5574 11671 5216 4730 3881 2497 8211 
3102 14867 4843 6806 15663 8664 6457 8966 16901 
3527 3844 9146 2037 9782 9771 13997 11930 9765 
11978 12856 2317 1054 1993 3822 963 3442 5386 
4154 13258 6488 7533 9681 4240 14435 2010 5434 
12286 10408 16289 14498 16130 9801 8658 8779 290 
10901 14649 9174 3502 15686 9759 2925 10081 15345 
1230 5756 9331 812 418 1995 7879 11544 9695 
14140 16249 15192 424 4785 5275 3106 10280 7922 
9654 14822 13998 12702 16726 13430 7139 10737 3668 
280 16032 11116 3623 12179 9103 10653 14224 11319 
281 13927 9921 3919 13523 15414 14366 11428 10882 
1494 13565 14634 4804 14412 5791 7450 8344 5801 
13859 9384 1808 2708 12341 6850 1708 10028 3142 
9969 8787 1322 6 14447 8214 10559 8878 6573 
2849 8493 7947 4742 5143 10423 6065 7206 15727 
12810 5946 1075 3394 4576 9795 7284 13985 11705 
2441 621 1195 1112 8818 1493 6602 1055 11564 
4711 15892 11408 11118 2006 3327 9031 10567 12478 
11975 12455 13 1273 12401 2922 5303 11816 16233 
15332 11898 1151 11046 4103 3486 5580 3812 12804 
991 11024 15023 3743 6070 2948 2062 904 15028 
15885 1030 2177 9713 5852 6072 14819 13266 11521 
13814 3702 938 7675 5793 10257 12190 10448 1136 
2780 6153 3940 15322 6320 15293 1143 2775 5740 
9375 15977 12972 17832 1313 7717 13113 12282 836 
11856 13123 14431 17144 3276 3450 2007 6483 4936 
3522 7274 10203 16104 11599 5419 4083 16017 9703 
3402 11910 10264 8782 6158 16166 2215 6772 13020 
789 17479 7709 16668 10699 919 9662 6417 2687 
3425 16970 4594 525 12413 2558 14970 7482 1303 
1104 9218 2048 3021 4642 1448 5140 10213 13729 
14437 614 15925 2273 12373 4532 11666 10341 9225 
1169 1898 11979 4556 9605 2157 978 11670 10784 
10349 2670 3435 4724 3439 7000 13678 4602 5830 
11732 8872 12418 7302 106 10209 6536 5077 14080 
6058 2841 382 1238 15595 14453 2949 13540 7423 
193 14358 9636 752 194 15509 3228 17323 9029 
259 2275 13155 17529 3278 4847 5789 12696 8642 
1006 15240 15601 13398 13297 10109 3336 4453 6528 
1910 2279 3594 10652 13776 1888 8023 11861 4770 
16430 14247 1965 8511 1296 7448 11294 10998 11336 
15475 1360 1018 1038 1389 5440 5342 11266 15965 
13272 3113 2635 8895 2501 5925 15938 16461 15791 
1927 3653 3033 3924 14332 3476 6978 12148 1733 
659 11236 5248 3835 17835 7793 11817 6207 10148 
3640 1475 5344 868 6420 8302 6506 5540 3950 
13411 11139 16026 15338 3242 1871 2451 588 17342 
8582 5948 10443 458 16481 1244 5018 340 2002 
10806 3247 2025 2857 11268 2580 12554 1253 2994 
12585 1764 16247 9346 7770 17524 2078 10227 10611 
10214 8792 3009 4842 9081 14809 10956 6461 5102 
6103 1377 12927 14795 13983 14189 3277 2329 10367 
9625 1292 12269 16297 16508 1289 10090 8107 11399 
5294 3221 6626 4783 2676 4542 1734 114 9355 
16129 10167 5315 16089 13689 4586 14554 13359 10620 