# vtk DataFile Version 5.1
Generated by LIGGGHTS
ASCII
DATASET POLYDATA
POINTS 17850 float
-0.0010137 -0.029322 0.00129877 0.000253898 -0.0293838 0.00139362 0.00205755 -0.0293129 0.00154677 
0.00578577 -0.0288076 0.0015313 -0.00760001 -0.0284384 0.00163029 -0.0062334 -0.0286914 0.00170845 
-0.00445409 -0.0286653 0.00121259 -0.00256037 -0.0284901 0.00172836 0.00119268 -0.0285073 0.00154162 
0.00244718 -0.0281288 0.00172852 -0.00549369 -0.0277394 0.00147775 -0.00263731 -0.0273088 0.00151654 
-0.000400609 -0.0273548 0.00168077 0.00169534 -0.0273162 0.00160502 0.00463317 -0.027589 0.00166969 
0.00849972 -0.027484 0.00123284 -0.00636178 -0.0268771 0.00138774 -0.00133667 -0.0266516 0.00134156 
0.00277681 -0.0267677 0.00161113 0.00765133 -0.0265374 0.00162074 -0.0130334 -0.0263539 0.00168003 
-0.00772551 -0.0258389 0.00169148 -0.00378404 -0.0262174 0.00147985 0.00227103 -0.0258138 0.00159785 
-0.00297778 -0.0251812 0.0014603 -0.000836286 -0.0255924 0.00140207 0.00108228 -0.0250833 0.00145093 
0.00489694 -0.0255964 0.00173641 0.00604752 -0.0256812 0.00166192 -0.00512054 -0.0248988 0.00155127 
-0.00127204 -0.0244537 0.00173259 -9.89862e-06 -0.024963 0.00130545 -0.00343925 -0.0239528 0.00159166 
0.000591857 -0.0238993 0.00171418 0.00267304 -0.0238385 0.00172143 0.0071829 -0.0241346 0.00158063 
-0.00125501 -0.0228739 0.00164886 -0.000137299 -0.0230788 0.00157679 -0.00404681 -0.0220945 0.00152469 
-0.00242467 -0.0225785 0.00142953 -0.00231959 -0.0215186 0.00151614 0.0048624 -0.0217934 0.00163099 
0.0167142 -0.0217942 0.00171219 0.0196672 -0.0218813 0.00154733 -0.000877077 -0.0208847 0.00115043 
-0.00432444 -0.0204065 0.00136843 -0.00320865 -0.0199578 0.00157605 -0.00174089 -0.020512 0.00170226 
-0.000658668 -0.0199784 0.00162491 0.0166674 -0.0203295 0.00163322 0.0216154 -0.0198218 0.00116612 
-0.00446224 -0.0192891 0.0016451 -0.00207569 -0.0192881 0.00158835 0.020735 -0.0193489 0.00169525 
-0.00119303 -0.0184997 0.0017124 0.000349797 -0.0187559 0.0014981 0.0177299 -0.0190286 0.00170027 
0.0198081 -0.0185121 0.00166302 0.0222351 -0.0189268 0.00161124 -0.000353759 -0.0175583 0.00145653 
0.0186886 -0.0179832 0.00161536 0.0211674 -0.0182743 0.00164674 -0.00422887 -0.017292 0.0015804 
-0.00158891 -0.0173797 0.00145933 0.019201 -0.0169045 0.001268 0.021702 -0.0170738 0.00132371 
-0.00195104 -0.0163008 0.00167925 -0.00016986 -0.0163976 0.00151097 0.0205616 -0.0166426 0.00115602 
-0.0246772 -0.0156143 0.00163129 -0.00404899 -0.0156505 0.00129568 -0.00288882 -0.0156532 0.00138041 
0.0194531 -0.0156387 0.00163914 -0.00423873 -0.0145779 0.00123886 0.0210163 -0.0145976 0.00108789 
0.0183876 -0.0139008 0.00164613 -0.00674224 -0.013426 0.0015571 -0.00366867 -0.0132181 0.00158634 
-0.00474767 -0.0127033 0.00102178 0.0197549 -0.0124613 0.00163756 0.0209776 -0.0130127 0.00123575 
0.0220533 -0.0127802 0.00169982 0.0258877 -0.0125515 0.00168889 -0.00868129 -0.0119863 0.00165078 
-0.00721342 -0.0119686 0.00140662 -0.00577481 -0.0121654 0.00118612 0.0219327 -0.0117376 0.00118415 
0.0230117 -0.0123002 0.00144005 0.0268359 -0.0117766 0.00168997 -0.00644296 -0.0111248 0.00147265 
0.0205386 -0.0107275 0.00157256 0.0216108 -0.0106762 0.00146289 0.0228 -0.0103456 0.00146706 
0.0251263 -0.0106077 0.00115641 0.0272115 -0.0107405 0.00155134 -0.0102501 -0.00980331 0.00173194 
-0.00835004 -0.0094276 0.00135127 -0.00693645 -0.00988654 0.00172982 0.0248042 -0.00949145 0.00161268 
0.026044 -0.00944692 0.0016346 -0.0100676 -0.00800493 0.00139077 0.0274119 -0.00855358 0.00147304 
-0.00588011 -0.00762463 0.00163097 0.0269437 -0.00717951 0.00172141 -0.00752517 -0.006849 0.00170119 
0.0259663 -0.00640759 0.00173939 -0.0113415 -0.00524088 0.00156734 -0.00856477 -0.00503256 0.00146459 
-0.00718503 -0.0045636 0.00170912 -0.0086821 -0.000496493 0.00153319 -0.00908769 0.00160943 0.00165878 
-0.0105862 0.00300561 0.00117258 -0.00896999 0.00427896 0.00121579 -0.00666182 0.00626845 0.0014517 
-0.00762322 0.00699717 0.00131024 -0.00701144 0.00843545 0.00164555 -0.00356327 0.00955823 0.00169413 
-0.00505365 0.0101006 0.00154675 -0.00576306 0.0110123 0.00160704 -0.00465976 0.0112218 0.00140292 
-0.00177759 0.0114843 0.00170516 -0.00334513 0.0119595 0.00148263 -0.00541513 0.012678 0.00124791 
-0.00310796 0.0130623 0.0014813 -0.00208665 0.0126347 0.00138291 -0.00429588 0.0137304 0.00159457 
-0.00181266 0.0136755 0.0015005 0.0122795 0.013784 0.00171718 -0.00420434 0.0157916 0.00149728 
-0.00149232 0.0159329 0.00170377 -0.00056302 0.0166597 0.00135163 0.00187372 0.0163848 0.00167427 
-0.00372802 0.0168347 0.00129596 -0.00257347 0.0169093 0.00154588 -0.00450966 0.0176393 0.00163216 
0.000814654 0.0179545 0.00143792 -0.000204374 0.0187012 0.00146566 0.00285861 0.0183795 0.00158674 
-0.0104174 0.0196579 0.00171158 -0.00329952 0.0199476 0.00170613 0.000926075 0.0198209 0.00167413 
-0.00372304 0.0209999 0.00167263 -0.00103909 0.020767 0.00121539 -0.00255616 0.0219268 0.00168084 
-0.000101636 0.0216884 0.00109769 0.00371981 0.0218452 0.00155988 -0.0130252 0.0221718 0.00163579 
-0.00608086 0.0221095 0.00162272 -0.00138261 0.022299 0.00141005 0.000967591 0.0226262 0.00162245 
0.00208071 0.0221786 0.00167282 -0.00430063 0.0231257 0.00171448 -0.00234195 0.0230857 0.00167077 
0.00288825 0.0242074 0.00164563 -0.00235859 0.0245702 0.00144484 0.00115495 0.0244134 0.00156808 
-0.00519985 0.0263982 0.00154399 -0.00345397 0.0260261 0.00162184 -0.00106951 0.0264553 0.00140376 
0.000516282 0.0261521 0.00151963 0.00160368 0.0258656 0.00134632 -0.00252313 0.0267229 0.00168215 
0.00143604 0.0269164 0.00106713 0.000320141 0.0282213 0.00134261 0.00175738 0.0284337 0.0015977 
0.00120545 0.0293669 0.00118531 -0.00423306 -0.0290964 0.0023252 -0.00333004 -0.0292661 0.00176491 
-0.00161117 -0.0293216 0.00226121 0.00317236 -0.0291947 0.00201686 0.00451762 -0.0289671 0.00180293 
-0.00518288 -0.0285218 0.00227792 -0.000474828 -0.0284578 0.00215969 0.0036514 -0.0281264 0.0017563 
0.00805012 -0.0282294 0.00239238 -0.0100096 -0.0273683 0.00212034 -0.00884943 -0.0279968 0.00213171 
-0.00424501 -0.0279642 0.00206543 -0.0034095 -0.0273706 0.00233482 -0.00155941 -0.0277658 0.00194823 
0.00583697 -0.0276203 0.00188687 0.00717682 -0.0277459 0.00177912 -0.00474584 -0.0269397 0.00188526 
-0.00156112 -0.0267161 0.00244299 0.000488814 -0.0271141 0.00246068 0.00404185 -0.0266906 0.00213033 
0.00540286 -0.0265344 0.00216009 0.00662908 -0.0266682 0.00236189 0.0100296 -0.0272604 0.00199471 
0.0111981 -0.0266591 0.00203954 0.0123585 -0.0266426 0.00205358 -0.0112541 -0.026234 0.00188658 
-0.00574408 -0.026289 0.00209836 -0.00468099 -0.0257724 0.00211667 -0.00349547 -0.025795 0.0024517 
-0.00268892 -0.0261942 0.00186916 0.000147105 -0.0261845 0.00182141 0.00127237 -0.0264092 0.00200075 
0.009004 -0.026458 0.00175155 0.0100781 -0.0261198 0.00221451 0.0136247 -0.0259748 0.00195095 
-0.0116672 -0.0252505 0.00193412 -0.00939796 -0.0251653 0.00196343 -0.00835146 -0.0251475 0.00241294 
-0.00667694 -0.0257399 0.00189153 -0.00151325 -0.0254104 0.00231446 0.00343985 -0.0257198 0.00186257 
0.00719073 -0.0252794 0.00191829 0.00927171 -0.0251056 0.00195399 -0.0141672 -0.0246842 0.00215345 
-0.010924 -0.0242844 0.0023215 -0.00424791 -0.0247425 0.00242855 -0.00232888 -0.0246364 0.00237138 
0.00345285 -0.0247038 0.00246386 0.00438695 -0.0246163 0.00179555 0.00557069 -0.0246618 0.0021661 
0.00668321 -0.0243893 0.00247632 0.00816972 -0.0245971 0.00181151 0.0104783 -0.0249279 0.00212956 
0.0117925 -0.0245574 0.00213953 0.0132193 -0.0243201 0.00188011 0.014977 -0.0249731 0.00205862 
0.0163551 -0.0243545 0.00199148 -0.00988552 -0.0238348 0.0018792 -0.00763364 -0.0238803 0.00196109 
-0.00664937 -0.0236011 0.00229907 -0.00458174 -0.0238255 0.00184274 -0.0020987 -0.0235647 0.00200012 
-0.000687431 -0.0236916 0.00235687 0.00163251 -0.023548 0.00196959 0.00383233 -0.0236956 0.00191561 
0.00510364 -0.0236931 0.00193037 0.00969098 -0.0239632 0.0020659 0.0153785 -0.0237693 0.00205442 
-0.0121126 -0.0231819 0.00196748 -0.00769314 -0.0228368 0.00221838 -0.00530614 -0.0228548 0.00232782 
-0.00424127 -0.022926 0.00233581 -0.00313145 -0.0227858 0.00226061 0.00644103 -0.0233735 0.00208865 
0.00756531 -0.0230361 0.00194669 0.00865071 -0.0233973 0.00193881 0.0117991 -0.023405 0.0018436 
0.0133717 -0.0232043 0.00241804 0.0145204 -0.0229166 0.00195028 0.0162244 -0.0229411 0.00182628 
0.0171919 -0.0235106 0.00191312 0.0181365 -0.0231524 0.00229583 -0.00633528 -0.0224919 0.00215474 
-0.00186504 -0.022191 0.00235998 -0.000429586 -0.0220705 0.00202464 0.00106235 -0.0225932 0.00191466 
0.00235988 -0.0226523 0.00193112 0.00427482 -0.0226802 0.00184421 0.00552971 -0.0226738 0.00194687 
0.00928578 -0.0224349 0.00213584 0.0112416 -0.0223357 0.00213259 0.0188445 -0.0223717 0.00199957 
-0.00726129 -0.0218174 0.00236202 -0.00550695 -0.0217415 0.00230241 0.000414563 -0.0213348 0.00182925 
0.0016377 -0.0215606 0.00203372 0.00368044 -0.0215107 0.00223586 0.00591328 -0.0216422 0.00195649 
0.00706362 -0.021942 0.00221117 0.0102494 -0.0217506 0.00209265 0.0131114 -0.0219741 0.00210637 
0.0144348 -0.0217905 0.00195643 0.0155463 -0.0219953 0.00185008 0.0178367 -0.0215174 0.0018079 
-0.0064229 -0.0211448 0.00193594 -0.00537863 -0.0206705 0.00191057 -0.00336974 -0.0211592 0.00180825 
-0.00245829 -0.0208428 0.00242563 -0.00122874 -0.0212416 0.00232539 0.0027599 -0.0207015 0.00215444 
0.00536213 -0.0206219 0.00223858 0.0066094 -0.0208701 0.00238918 0.00775902 -0.0207613 0.00203268 
0.00916662 -0.0208644 0.00187296 0.0126515 -0.0207805 0.00215201 0.0138652 -0.0207887 0.00197326 
0.0188293 -0.0207628 0.00210234 0.0204555 -0.021033 0.00182862 -0.00633688 -0.0199968 0.00184173 
0.000764652 -0.0202051 0.00191801 0.0105775 -0.0201659 0.00237502 0.0149018 -0.0203602 0.00194084 
0.0178161 -0.0201612 0.00233412 0.0197566 -0.0200124 0.0017674 0.00193669 -0.0196599 0.00187391 
0.00301657 -0.0196524 0.00206542 0.00430232 -0.0195091 0.00214723 0.00554658 -0.0190654 0.00243401 
0.00696538 -0.0194323 0.00223875 0.00817429 -0.0197094 0.00210238 0.012624 -0.0196487 0.00194887 
[...]
POINT_DATA 17850
FIELD FieldData 6
id 1 17850 int
516 6745 550 5643 5234 4241 6068 285 1424 
3419 4311 1688 1284 6650 5260 2182 648 5171 
6687 6893 5622 4649 378 5923 3309 5986 3891 
4385 1498 5449 2954 6328 31 1552 2682 6796 
733 6871 376 923 3668 4391 4336 5262 6896 
3306 1589 4793 5232 573 5237 158 1933 2050 
558 275 5225 1697 1947 1447 12285 9046 4661 
4192 5609 2037 2058 5480 3317 4397 3177 4806 
124 6860 5911 1131 6380 4406 5368 1811 3811 
6532 774 3955 9930 5649 2925 5783 4413 127 
4332 604 388 5251 758 4562 4198 96 3160 
320 990 6664 6158 2502 3836 5618 3433 6542 
1997 3775 6285 6691 5879 3784 314 4447 2432 
10738 1668 750 2002 4416 6665 5763 5295 5848 
6862 6607 4658 35 6254 4454 3454 5271 2012 
138 1108 5453 4733 3971 3792 5173 1834 5680 
4497 6262 5207 737 2345 326 5615 6485 2239 
2710 1174 6887 2082 3473 4710 70 5982 4876 
6173 1586 5022 5608 4331 6293 2914 1852 1132 
377 6061 2104 4782 4850 2200 697 6487 2924 
1171 1079 2074 165 7223 2582 463 1232 2890 
147 319 6495 508 1713 6315 4160 322 3945 
5892 1606 1890 5092 5605 1098 5313 5166 2688 
5124 2623 4862 1333 4672 4144 1485 810 6589 
6778 2786 4520 1091 824 15 6478 4734 6586 
2939 4896 3172 3012 6292 3579 3837 1109 3216 
3757 4853 6519 4501 311 1438 4028 3265 544 
2060 6608 704 4839 4459 2159 1511 1107 2054 
107 775 4285 1553 174 6028 2418 6530 957 
3030 3150 4566 1329 5969 1908 1345 6724 1103 
3841 3099 2153 5276 595 524 1483 4633 5006 
5332 2431 631 4465 37 6231 5771 6083 2783 
1222 3702 6325 6357 3395 1307 1502 4697 2537 
6011 5210 805 2773 4402 8924 6313 2615 5162 
3624 5039 4057 2235 4667 963 3840 816 6566 
5474 2300 3471 5758 6448 3449 5315 5580 4477 
3902 5395 3526 1657 6324 668 6899 193 3620 
4915 8850 2324 53 5306 5690 6270 116 3442 
3931 3258 3008 437 1500 3144 2529 1040 647 
6160 1452 2123 8996 849 2528 5681 1258 3243 
3085 6508 4253 10549 1354 3311 4068 126 5954 
1535 5328 8092 11408 2020 5362 6812 1030 1022 
5138 1546 3985 298 984 5379 4004 3097 11055 
2728 2174 4358 1819 6810 79 1956 2944 5377 
2098 11238 2105 2612 86 3149 751 3637 2650 
2099 3042 5839 5465 3142 4804 4252 6805 272 
2825 6399 4372 2160 2155 5650 3592 4560 375 
4434 4816 6135 6401 5129 6866 5493 9197 6326 
2019 621 6695 2419 7747 5370 1734 12507 195 
6672 4035 675 5033 2955 2983 6547 4282 462 
3154 2918 1803 2874 3264 1880 695 11661 3904 
6183 5875 2276 176 968 5691 2734 5215 6025 
6865 1418 2244 1049 5830 4169 2616 979 4235 
5752 245 5579 446 4398 6316 6371 5308 3226 
5219 2603 4716 6100 1530 1466 4115 3796 5279 
2292 2011 4493 3677 4572 6486 2405 2738 140 
118 6296 1204 5415 4408 2501 1927 5573 185 
4543 1863 5303 2960 4133 5840 2527 1786 2218 
5865 6661 2830 2425 5414 2413 4706 2296 3253 
6225 1572 1238 1182 4884 3323 641 3319 4225 
6072 987 1737 1525 3983 3585 4789 6683 4055 
6605 868 5015 4684 150 4197 4582 4281 998 
2299 4888 5346 4472 6725 4239 4500 3531 2371 
3647 4981 5962 5898 4580 707 4930 1931 2211 
2847 1529 4990 3244 5510 3307 685 6752 4099 
6200 3804 2421 3340 4298 4259 1882 6625 2387 
5229 1239 44 564 5525 2662 1519 2356 5132 
3504 5561 2972 2589 5994 6454 4598 67 767 
764 2128 5658 3698 6338 692 6849 5678 2146 
5016 3961 3078 4015 4699 4418 6494 8930 4367 
4922 4324 5431 989 1981 1013 5984 6575 6721 
2375 1421 5818 1374 64 2363 4200 6527 1046 
2658 5091 2135 3654 6570 1537 5289 6615 5088 
2675 4120 532 3434 1894 39 5606 762 2719 
1603 2756 381 1749 1365 5631 5123 5156 1453 
2525 2832 2887 3954 3538 3848 1336 1856 4746 
3660 1523 5905 10182 6801 953 2768 3481 6115 
1186 1241 1824 2139 352 4255 4074 5502 8879 
1573 1437 7568 5745 3642 1035 3872 5135 4486 
4243 5938 4058 3555 5956 6358 77 6525 6268 
1729 3639 4395 10366 9540 4713 4651 9991 3165 
10881 1243 2436 476 1117 3016 4276 5155 4326 
5780 6237 5448 5820 8049 799 1812 6089 3207 
2117 535 6236 1748 5912 3989 6302 3116 4425 
5781 5621 1952 4374 5661 3093 233 6043 4911 
2557 1005 1116 1252 5228 2196 1286 6034 2361 
860 370 676 6491 6509 3036 149 4797 196 
3351 2559 4669 3133 1788 4498 4918 2352 4108 
1488 2506 299 6087 283 5603 6659 3063 2081 
5687 4625 3104 2057 5257 52 2416 445 3875 
4033 515 173 2454 6595 1782 5707 1558 2005 
383 222 5959 4038 182 3755 3011 3588 942 
4673 2379 5146 6027 527 2199 3997 5202 415 
409 924 1942 5534 1582 3196 1935 791 146 
1532 5235 5333 10416 7283 6337 4552 2917 3453 
5664 2716 2822 6398 1014 3915 2720 672 1070 
128 510 643 2667 5808 3363 1881 1094 3326 
4810 5216 123 6050 10067 3754 5924 5192 1007 
5094 4887 3457 2323 4786 4485 3436 3052 1751 
4394 4183 8983 10457 3907 3761 1057 500 3213 
785 2467 782 5305 3300 4037 3047 9432 6895 
8213 1565 3674 5359 3023 4775 1247 12759 5045 
4828 3406 12252 4843 4671 2518 2876 6592 1836 
3399 7004 1963 4812 3224 4637 8908 1051 3391 
4526 6159 2545 5265 5168 3739 5490 4430 252 
1119 1543 2027 2782 3239 10024 1677 5508 6762 
5011 10069 10318 2699 3494 2553 4227 12113 5776 
4377 2388 4993 4614 4090 1938 5842 2017 3627 
4523 8372 111 1272 5880 5445 6363 4351 5423 
5314 2403 10477 3777 7665 3259 4283 4292 5019 
4764 3084 1860 3067 3748 2659 2234 8267 9811 
2112 5100 10581 10626 324 6451 5161 4873 3248 
2489 8420 12075 99 6101 1413 2225 4220 3651 
4280 5751 5539 4005 10081 10699 1667 858 4305 
4381 1889 3203 5505 5941 6470 1478 2534 711 
6149 3657 6839 163 1218 11118 10847 10408 6084 
637 5747 1213 202 1601 530 974 5876 1367 
4886 4215 6129 2151 735 5891 5487 10860 6497 
11662 10117 5946 1322 2769 3401 10056 4591 38 
4666 1780 6366 666 464 4781 6269 10927 3438 
3308 8689 12365 1069 4405 6565 5127 4154 5086 
3194 6817 6772 1074 3887 5590 2884 5385 2262 
3884 5425 4288 6014 3101 2853 867 2656 1810 
7533 5665 10946 6556 5497 3407 3497 965 609 
6706 2861 3686 533 5542 2958 5409 3033 2881 
8197 5903 10040 1450 5859 1168 2670 4165 887 
45 2535 904 5889 2354 7625 5275 1805 1839 
1081 6339 6550 3065 1510 3704 2987 3423 3781 
803 6700 3535 6540 1853 842 3865 1199 10429 
10821 1099 907 1750 2613 4219 6266 347 489 
6630 4846 406 2446 4302 1253 4178 10277 9009 
886 1118 933 3705 2383 4694 2026 2046 1617 
5540 2609 6732 8701 6791 5358 288 5201 1264 
1122 30 1731 3692 4744 3940 1943 2723 484 
3783 1463 6803 5164 8450 833 6708 5352 6789 
6449 1028 1203 2899 2791 1063 251 4299 431 
2740 6824 1497 6737 6378 6469 5464 3278 6177 
3683 2215 6639 5451 4654 207 3260 4985 3615 
5187 3261 8613 10824 6320 6698 382 4711 4127 
5789 5642 7590 4277 2465 3922 1048 1393 4595 
2177 4908 5854 5988 12314 28 292 3354 2484 
4587 205 503 1328 4646 2906 2000 6094 133 
6471 3779 131 6874 9781 765 4440 1862 3082 
3129 2781 584 6279 2789 3941 4275 2208 3420 
1123 3830 3094 911 3903 1740 1456 3578 2516 
4859 372 4083 5267 2441 5144 5574 932 379 
4994 50 4551 972 1944 6740 1455 1377 5463 
4082 3924 4045 328 3344 642 5567 2642 1897 
2923 5179 6799 3123 811 6601 3933 6651 444 
6775 838 9051 4657 834 394 3115 10646 331 
3108 1549 2664 1814 2841 3653 4524 2938 678 
2676 6723 2120 2974 5107 5933 3122 4111 1917 
2442 2598 5607 496 3821 1644 3284 1924 5991 
1912 340 5725 1120 4556 4206 5851 104 10057 
3328 591 6220 2879 5013 3927 5247 3316 1015 
1847 4407 6483 5143 5149 2754 1145 11554 4919 
4039 1526 194 4036 156 1229 1288 4558 6462 
4933 6189 2574 1285 5537 4621 5489 1980 4087 
1403 10890 6331 3200 10243 1360 6587 2056 6096 
708 135 6754 5102 1177 2695 798 562 1830 
1898 2541 4783 3760 2546 6857 5807 4717 6113 
2306 3920 5137 11227 5223 1432 4475 6832 3372 
3342 5869 4866 1250 1024 3447 1126 113 3965 
4010 6499 5432 1259 2538 7 11216 1813 368 
1476 4410 3604 1619 521 5294 4947 3845 3618 
3899 5063 796 1102 2092 5873 2084 748 3568 
3417 6003 3431 8565 4112 5034 4114 4480 436 
3542 3839 6461 2586 271 4002 4131 3044 353 
5901 3684 5191 3582 3120 3864 330 3953 4969 
6644 1350 6216 1257 318 3474 1638 3575 650 
4852 398 4290 781 3015 2032 5899 6503 4954 
3275 6618 5108 6892 2271 1347 4439 6350 8874 
2390 6776 22 2933 4603 6009 6678 2604 209 
3334 4762 4743 4678 903 2697 3408 3879 55 
4844 4286 2755 4333 6259 6684 1706 3386 4064 
2496 4315 2185 4301 2587 859 3171 4808 3331 
1615 88 6744 2812 5459 3245 7237 167 8590 
4016 2357 91 593 4858 5694 7820 11931 4081 
2228 567 3574 8815 4638 4898 2588 4158 4891 
4647 9905 3432 6467 5457 6133 5735 1716 1 
11547 5054 4703 5133 4316 6051 6349 263 4492 
6516 2904 1844 3532 1983 5871 2992 9678 5056 
3130 1661 68 729 6537 4722 794 6954 2076 
3890 5338 3022 11441 1569 5112 2072 4328 2121 
267 12691 3199 5482 1031 1153 2067 6414 1121 
6404 723 6713 1304 8639 5416 11961 1084 9903 
1876 1332 3515 4473 6441 4350 1918 206 4926 
4834 137 787 6134 4203 3272 3968 3741 4202 
6157 486 6624 5717 2579 2209 572 5198 6474 
1033 5098 1269 414 916 1207 157 6647 6212 
5428 5467 5906 11785 2973 517 5755 3359 4289 
2542 11866 5688 1906 638 6468 2149 2644 2348 
3689 5592 2866 578 1696 566 3690 1568 425 
2671 4861 4980 2827 962 1590 2241 6949 3951 
4910 6223 487 1797 6456 7014 5031 3600 5764 
5008 4505 2222 5355 971 1659 1642 2908 3975 
279 4054 6298 5558 950 1062 3452 3027 8495 
3388 594 2101 556 6889 2956 5460 6323 5103 
6442 6749 6305 9290 2891 599 1663 623 499 
264 2328 6406 835 1747 561 12590 6614 881 
1078 3876 651 78 2665 6304 2572 7508 1242 
7511 12713 8887 3738 12256 11181 10173 6076 261 
6060 145 4363 1457 10358 5578 5492 65 4989 
5116 970 27 1076 5200 2886 81 1163 6249 
6018 8388 6518 4484 2900 2511 6900 6552 2892 
1666 1187 3691 5964 5052 9800 3514 6610 8835 
10401 3463 12536 2474 6842 6364 1639 6623 291 
4190 4438 1390 1993 7949 5236 12692 2015 2689 
5756 8178 4604 4893 3566 4758 6107 6021 6522 
11126 11772 7169 9914 11176 1695 601 2170 4823 
1392 5913 1721 4583 3597 2554 852 1785 897 
1923 1008 7438 11927 9347 5675 8172 2739 243 
1999 6898 4278 776 5079 5274 3714 1845 6392 
11187 3314 2936 2430 4445 10677 12773 6141 4833 
3069 1454 69 8882 4231 3767 4769 1225 5115 
12445 2023 6869 4353 12505 2942 9835 12129 4163 
5623 4631 5120 2839 11948 1922 5101 2795 937 
3102 670 1205 2018 8108 7619 10993 2010 10762 
5405 6125 1325 5419 912 3746 2797 5422 2968 
249 5197 3648 4121 102 10715 11031 10632 2124 
7156 11029 8569 2473 625 10796 1833 4683 4474 
6242 3441 3003 306 5036 6466 4458 8466 1227 
10941 4000 2957 9654 8598 3029 6880 9093 3609 
6291 1346 9174 2883 5861 5224 6250 8051 3628 
3428 12661 9660 8549 9092 3387 219 1370 2649 
10338 4798 3952 3161 1574 5407 2863 7965 1147 
2575 3590 955 1092 11477 11362 2178 11028 6352 
6544 4576 2509 3024 5975 9761 6904 300 4218 
1968 1520 10365 2503 5002 6437 2397 8892 7079 
8086 8891 4677 5278 4103 8610 5568 2912 4878 
6317 2259 6602 2351 5097 6130 4429 3288 6241 
1045 8019 5853 12315 11566 11292 6247 5985 1075 
2709 1181 10424 1826 7958 5604 2809 3591 6573 
1141 3886 3250 939 5134 2657 1783 8011 11677 
10586 1675 11045 3110 4745 380 122 6205 2362 
1127 5065 2150 11338 5810 3646 4729 1197 2316 
5589 1254 5193 580 4371 5801 873 2156 11912 
439 2543 143 3476 4161 4448 9868 11647 5320 
5748 1531 865 3336 229 8476 1396 674 3786 
5562 6256 2950 2265 2712 7859 4417 426 161 
2803 11561 10883 1002 2673 1158 719 6179 3368 
5032 4323 5486 6858 12566 3305 12573 3221 3106 
7394 5598 3780 4601 5714 5522 6811 9388 6136 
6460 2690 6584 2364 3487 5883 3623 1678 3727 
7920 6923 6052 2281 2846 3050 5935 1708 5363 
5047 2602 8501 1801 9769 9346 1650 6543 4224 
4233 2679 10162 1391 3392 679 2248 4653 6137 
6040 5987 6711 6015 3753 6710 4199 980 2910 
4770 226 4971 151 4109 3818 4597 8426 11229 
2776 6232 6531 2707 9168 9370 59 2531 1887 
1728 5150 3712 3782 5104 7375 2220 5970 220 
4792 3103 3576 3178 280 3146 6557 4540 4871 
763 498 825 1499 11604 4778 10983 4141 2605 
6564 4577 5770 4937 5222 4835 4504 3973 1448 
2855 4681 457 6561 4607 4800 3125 684 1319 
6450 7422 11856 106 3485 1217 6868 5211 3295 
3007 1798 6388 4185 1405 1937 3358 8477 6194 
5955 611 1236 931 5221 6188 2444 2475 6057 
5024 5403 1711 3570 5633 3896 2147 1089 4157 
3214 200 5760 6777 6780 7615 6609 4056 836 
472 6549 1941 6773 5706 5897 11 6836 4113 
6492 3054 4991 1557 667 1472 432 606 3231 
2404 514 702 3652 172 1162 1027 4201 259 
260 6761 3255 5163 1267 1038 1915 4636 2626 
3950 2838 4959 2111 1982 3682 277 3281 3655 
6008 3458 1685 780 2049 4738 405 1161 5284 
1633 1095 1278 342 2422 6515 3606 5958 2237 
2687 4462 1953 1773 433 357 1990 1433 10 
3446 3587 1353 2338 4584 85 73 2212 3009 
1975 3873 2668 339 5268 6484 1515 1299 5705 
5721 1602 4106 1130 2926 4565 475 2784 2488 
2994 6407 4006 6393 6013 6258 5408 1072 5949 
4101 5847 11378 4917 5795 2620 2641 5837 12516 
6500 2254 2360 312 413 456 5472 61 884 
5940 6329 2381 4460 3262 75 3797 4542 11777 
2402 3947 4615 4139 4548 2114 2247 6143 3318 
5176 1506 4491 2396 6546 5443 2232 80 6006 
1720 665 5180 365 6637 12451 3418 6300 1383 
4502 10004 646 739 820 1234 5733 6652 1939 
1858 2223 2911 4999 4784 3 5259 4970 198 
7955 3663 2787 392 6626 9586 4435 3918 1901 
3793 4870 5485 3815 2141 5976 4791 3061 6086 
2344 14 6193 2266 815 6169 3393 72 6750 
1248 6459 3751 5439 6198 2645 5050 192 4051 
2415 5778 2409 4525 5326 4912 2922 6472 6360 
10974 1762 4575 3595 2530 5254 9044 2745 2495 
728 3409 1219 4343 3937 16 945 1967 6020 
4339 11865 136 3759 4939 4527 3948 1458 6675 
2685 3315 348 6427 5003 3871 4731 3742 10952 
996 3729 474 6055 6156 6395 2850 4656 551 
4262 790 5261 5393 4007 3856 5043 5660 9338 
3383 5336 11977 9894 3128 2981 6092 2595 2601 
9599 9659 1032 6222 3765 832 1009 5217 2242 
201 7340 654 5926 5392 3659 1576 1850 4503 
2565 944 603 6400 6127 6766 1564 2236 10709 
1794 132 2813 6335 889 1019 2732 2548 2624 
1384 428 2263 854 3413 115 1349 9521 5281 
2807 6152 84 1807 6405 1972 2997 6088 4766 
2610 5388 3521 3855 6742 538 1065 5020 3014 
1634 2217 1625 1170 2468 935 71 4354 747 
2272 4469 2573 5979 3520 941 1209 9697 2079 
4031 3495 2052 2126 4244 1001 3345 1184 186 
11989 1148 1382 2086 5601 1792 4110 1214 2193 
1245 893 1066 3626 7567 3380 2066 3981 1681 
5635 2295 455 6411 1684 802 543 2434 2816 
6905 1976 3601 3247 3230 9332 5779 4611 1516 
2332 5636 1522 2053 468 5066 363 4774 5878 
4920 5244 1787 841 4217 3580 6833 2342 2479 
5297 6276 5110 857 6643 6504 2932 4865 3039 
4983 3132 1827 3970 1679 9512 4264 1712 454 
5093 1440 8067 129 1302 6294 555 1626 4771 
4680 5354 2533 5547 11980 3263 12465 6214 6440 
3117 6600 1628 4718 1815 2714 3928 2291 1464 
397 3701 4578 3349 9362 3289 7335 4826 12350 
1900 541 6613 1892 9877 98 4546 2746 6748 
8074 6464 1160 3679 11839 1753 11165 7053 9213 
1156 1338 6354 1139 6870 10710 4640 4609 1300 
5205 5627 8531 4902 5815 11788 701 8464 6047 
3923 371 5399 1100 8756 7072 6760 9862 4837 
12459 9698 11471 5596 843 1744 159 1295 6311 
5711 8040 1616 6538 4555 5790 12664 7981 8467 
5804 6204 493 1114 10804 11832 1237 5189 7317 
11021 6718 6029 3325 12288 2372 7972 5685 4952 
3202 6322 1701 60 4996 8786 1058 1595 4094 
6634 10704 1835 10967 680 5777 477 4166 7878 
6736 3605 3427 5389 7436 11887 2677 4663 1610 
2717 11347 4906 4268 4019 9096 12081 4260 2231 
1291 1538 1727 8438 6110 2801 6000 4627 5496 
1211 15783 2655 8165 6568 4387 622 6108 5511 
2137 387 1702 11180 465 5619 323 3060 10675 
7996 4740 12469 3176 6765 6443 6529 6123 5087 
2970 1255 1818 5594 2162 716 215 3838 1578 
4928 5004 3635 2512 2583 4899 9389 12020 4401 
2990 449 3412 237 1949 600 954 1758 1784 
1037 1579 2628 6686 6621 3312 2311 6090 1809 
2181 4978 6620 4319 3740 830 548 3858 5498 
7705 706 10317 4559 2314 4629 480 8094 10415 
906 511 3630 5553 6886 3541 5692 110 6674 
6444 3251 5920 47 4660 2445 1251 504 9603 
10727 1623 3733 652 3414 761 713 2229 6873 
217 8151 8944 12711 4863 4069 4274 3501 1596 
6830 6856 6881 6026 5746 5209 5519 10386 9556 
12144 4691 303 2969 3424 4368 8010 7213 10200 
9810 10840 11595 8886 1909 4809 3058 386 2161 
2022 2184 7441 4076 12587 5529 6081 10425 4062 
8807 12518 4318 10879 1635 411 11824 4048 1851 
9763 7181 4063 4948 168 8948 7735 2941 11584 
829 5569 9490 8047 11423 5996 5364 1368 97 
8262 2202 4184 3484 12542 12217 3415 6272 6475 
5023 5824 4807 6783 3967 3862 5663 6800 2283 
5331 11372 4904 2777 7932 12262 12147 6975 5980 
9610 1083 11133 2735 6885 10194 5345 6097 359 
2931 6571 5868 1575 5833 5353 5683 11803 11966 
2109 7876 11070 7853 3510 5434 2663 10861 12727 
7316 10891 3857 4894 1462 4974 5546 777 2423 
4230 2500 6939 8648 6410 2042 5767 2339 4982 
12047 4470 1101 6662 3048 5582 10791 5322 5484 
7428 2378 9340 10202 403 6195 7291 8253 11907 
3881 2654 559 1380 4404 1223 2824 7660 4630 
9473 10663 6521 1317 2028 3732 3914 2030 6273 
2317 3523 5530 5927 3822 5769 6727 2251 1840 
6301 5507 11976 11141 7054 8311 9100 9885 8224 
385 3291 1704 12424 12286 6391 4075 1732 1041 
2505 1951 5437 6667 11971 287 2759 4659 7023 
7873 11943 7138 9851 9574 3809 4883 3257 473 
2867 1409 10877 3364 3502 4869 10154 1173 12110 
6859 2163 11041 10936 10500 11888 3071 401 11968 
7319 9032 1995 21 5151 4676 5856 6741 6201 
4845 2630 8463 12670 1676 10471 9969 10653 5053 
18 5347 3211 4643 12097 7872 1356 4320 1489 
1611 4979 12153 11250 5500 11374 6361 5741 11046 
7893 9777 5401 2333 597 5446 3810 4877 9742 
10125 7633 1707 11434 12681 9923 3662 1316 2550 
6599 7451 6255 9954 5997 5887 1899 2164 3812 
10490 9179 7901 2760 1395 1054 1670 5518 2091 
12026 5246 2700 2967 3959 5999 11421 10800 7969 
4341 1994 5266 1361 10597 4588 4226 2691 1877 
5736 7292 991 11064 7271 5697 2775 4370 6416 
4748 5703 5291 12752 11503 3032 438 2006 5218 
3622 6202 4228 3743 1893 1112 6251 9137 6907 
9747 5181 11462 5157 2648 1925 11007 7903 9017 
1341 6044 3237 3573 4700 3396 2097 1870 2851 
11806 8672 2269 11273 2110 3049 6102 441 9762 
10279 2802 11572 11744 8248 8828 614 6818 1540 
4726 4773 837 4053 6453 2733 2943 3559 1376 
6104 8515 10102 1276 309 6367 5140 1763 8688 
10920 10493 7849 4247 691 1868 5551 1277 6786 
2213 11879 2214 6056 5695 2702 4309 3842 2708 
2346 12420 8682 7361 3820 1547 1733 961 3411 
2458 2637 42 3002 8788 6321 11574 8859 2189 
8140 12651 10969 1290 2961 1829 6344 6879 3462 
2224 7097 3500 3527 630 1082 4362 789 11877 
9925 12649 11593 10459 7784 4232 901 1627 6119 
2864 1280 4511 9738 3846 2811 351 6330 2651 
1443 1718 4817 4642 4674 4544 4612 5055 2132 
11266 6336 6117 9719 8272 1340 6559 2808 576 
6840 839 5585 3461 8542 7242 5517 6563 3298 
10353 2253 1240 2517 1006 5928 2188 3018 3807 
4461 1604 673 4787 9999 11278 12665 9153 6457 
6488 5230 5199 6837 4693 295 6038 5740 6685 
11117 4779 1527 2394 712 190 5343 1705 10232 
7740 2731 8796 4836 3717 6105 6541 5961 4961 
315 183 3700 853 11230 3817 12744 5424 2508 
3353 3803 3984 5817 3548 8073 10345 12006 5243 
1948 2449 434 5272 1577 10514 1473 2249 1791 
4599 6507 10395 11259 4365 3429 3480 12176 2499 
3416 4499 5583 2448 1508 6379 2568 6657 977 
4554 11105 10625 7701 10723 4707 5226 404 3785 
4308 2949 1428 1571 232 2326 10325 4534 3121 
878 2558 2039 1541 4444 6435 3020 9156 5932 
4159 2721 6804 4092 563 4963 2953 6844 5296 
2143 4739 6539 5686 3118 6797 1339 4175 2741 
3155 4441 1764 8070 5528 727 9709 4130 2343 
1023 3894 5813 467 982 1337 5105 8144 6238 
5227 5702 1986 734 995 2376 1799 5757 5599 
1138 6071 8530 10356 7226 5316 910 408 3179 
6523 3472 3990 2619 1143 4785 2407 3870 9229 
3893 4509 125 12663 4052 4146 4 4174 826 
2964 1929 6722 4532 569 4765 3437 3148 1190 
2638 7925 4880 5321 2463 4665 898 2998 7718 
5825 2255 4107 3111 6299 29 1226 2996 5610 
3565 5557 899 5638 4403 4632 4664 2335 4751 
3156 5709 10088 2453 11405 3086 5071 752 286 
5147 308 4639 4279 1136 10674 4519 7448 3276 
2370 5870 9149 5657 8575 768 2450 5726 6551 
2061 5356 7259 11541 3277 5701 6577 3180 582 
12239 1104 3021 4847 12321 5007 5626 3157 3043 
5998 4901 7245 1608 6717 4378 602 301 5373 
5350 4098 6506 818 1854 4815 4972 4207 6690 
4162 7044 753 2389 255 3208 3577 4944 1874 
3823 1011 4594 4953 2513 6851 9027 2392 390 
1605 4517 3174 4050 5819 2426 3537 3410 1326 
3166 12381 11896 3805 740 5081 575 5018 3640 
435 1059 1647 9626 1660 6010 2077 12708 5466 
5533 4943 6343 720 180 5494 7946 4825 384 
2492 4431 1965 6822 1423 755 6951 10517 947 
5673 5481 112 4856 3925 100 9667 4644 3518 
1723 663 5208 4571 3218 6207 3594 6234 5749 
5713 4040 1641 6767 3586 2456 4415 3619 1208 
12700 3557 1379 4909 364 988 329 11403 6562 