# vtk DataFile Version 5.1
Generated by LIGGGHTS
ASCII
DATASET POLYDATA
POINTS 17850 float
0.0023483 -0.0291958 0.000952401 0.000260428 -0.0282301 0.00102188 -0.0144791 -0.025507 0.000968794 
-7.69953e-05 -0.0253716 0.000985339 -0.0157678 -0.0238394 0.000950699 0.00858666 -0.0245544 0.000914563 
-0.0144778 -0.0229499 0.000966418 0.0159156 -0.0226373 0.00134488 -0.0139619 -0.0216716 0.0009358 
0.00952978 -0.0219181 0.00102916 0.0140258 -0.0214679 0.00090906 0.0027673 -0.0217214 0.000964644 
-0.0208271 -0.0198464 0.00115706 -0.0110974 -0.0194451 0.0012064 0.0165107 -0.0201019 0.000983396 
-0.00209503 -0.0193388 0.000967675 -0.000974984 -0.019613 0.000959342 0.000505842 -0.0197853 0.000911968 
0.0109851 -0.0200377 0.00100108 0.0122962 -0.0178017 0.00100673 -0.00676882 -0.0155555 0.000931788 
-0.00274795 -0.0171193 0.000925287 -0.0156114 -0.0164689 0.00116294 -0.0164379 -0.0156078 0.000969903 
-0.00769173 -0.016075 0.00112558 -0.015379 -0.0143021 0.00101477 0.0242437 -0.0160675 0.00103283 
-0.0167635 -0.0138577 0.00111699 -0.0235034 -0.0138085 0.000994981 -0.0126761 -0.0132098 0.0010517 
0.00216002 -0.0139556 0.00103248 0.0196812 -0.0142353 0.0011471 0.0221941 -0.0141578 0.000929363 
0.0204311 -0.0133409 0.000932919 0.0262543 -0.011658 0.000949158 -0.0187487 -0.00998311 0.000928069 
-0.00141871 -0.00984048 0.000990487 0.022702 -0.0105927 0.000959648 -0.0131932 -0.00990207 0.00179136 
-0.00702581 -0.00846016 0.0010168 0.0216064 -0.00998562 0.000991234 0.0238912 -0.0105951 0.000989293 
0.00462909 -0.00861569 0.00111262 0.0142449 -0.00945371 0.00100339 0.0182376 -0.00932297 0.000971222 
0.0256715 -0.00973362 0.000996401 -0.0283396 -0.00772918 0.000943756 -0.0219673 -0.00992375 0.000939333 
-0.0180802 -0.00911123 0.000997504 -0.0153284 -0.00893367 0.00108938 0.00195803 -0.00737516 0.000954941 
0.0144677 -0.00794868 0.00107545 0.0234463 -0.00869233 0.000904241 -0.0197619 -0.00610194 0.000956779 
0.0041748 -0.00589051 0.000993963 0.00600073 -0.00534031 0.000958883 0.00768715 -0.00633048 0.000987848 
0.0155428 -0.00801981 0.000926086 -0.00885508 -0.00601223 0.00106173 0.01626 -0.00584817 0.00104471 
-0.0187975 -0.00754931 0.00101073 0.0151023 -0.00575659 0.000960512 0.0172633 -0.00530254 0.00094561 
0.00744585 -0.00422619 0.000987787 0.0152169 -0.00451463 0.000929512 0.0199772 -0.00481371 0.000936464 
-0.0243773 -0.00500254 0.000926307 -0.019322 -0.00404942 0.000904667 -0.00443786 -0.00423476 0.00089667 
0.0217324 -0.00404581 0.000909961 0.0234931 -0.00459959 0.000972044 -0.0102247 -0.00300047 0.00104568 
0.00679014 -0.00280356 0.000990282 0.0149917 -0.00345573 0.000972291 0.0168789 -0.00345902 0.000984165 
0.0204131 -0.00382959 0.000940912 -0.0270454 -0.0029488 0.000940589 -0.0251241 -0.00414925 0.000953904 
0.017434 -0.00229604 0.00091067 -0.0243349 -0.00218601 0.000938172 -0.0226503 -0.00255123 0.00100295 
0.00645771 -0.00177306 0.000899028 0.014014 -0.00131067 0.00110036 0.0189225 -0.00133229 0.000944109 
0.0220232 -0.000651765 0.000950591 -0.0214452 -0.00220292 0.000928129 -0.0181158 -0.00141604 0.000952055 
-0.0176466 -0.00243874 0.000896992 0.0201323 -0.00123654 0.000955227 0.00700172 0.000138733 0.000962543 
-0.0232283 -0.000384947 0.000965196 -0.0218095 -5.22309e-05 0.000995354 -0.0185966 0.000595241 0.000919209 
-0.0102992 0.000195154 0.00122442 0.00276746 0.000934266 0.00105716 0.00632239 0.000922637 0.00109402 
0.0223862 0.0013137 0.000950765 -0.020509 0.00070604 0.000947606 -0.00219793 0.00177647 0.000951264 
0.0212078 0.00212809 0.000927844 -0.00451875 0.00191745 0.00127955 0.0177587 0.00259908 0.000959374 
0.019672 0.00261542 0.000984829 0.0221695 0.00273381 0.00103462 -0.020226 0.00212145 0.000920656 
0.0254731 0.0036745 0.000933914 0.0208552 0.00365354 0.00092161 0.0223996 0.00479213 0.000977103 
0.0237356 0.00504981 0.000946209 -0.0113931 0.00346389 0.00110383 -0.01035 0.00399536 0.000988531 
0.00664413 0.00571723 0.00102764 0.0214371 0.00526173 0.000925332 0.0225755 0.00590434 0.000960212 
0.0279936 0.00513065 0.00104771 -0.0233854 0.00613751 0.00108516 0.0213469 0.00643604 0.000926167 
0.0237718 0.00607751 0.000921841 -0.00680728 0.00689724 0.000932538 -0.00206319 0.00709712 0.000977071 
0.0209751 0.00741869 0.000946382 0.0228133 0.00701437 0.000939081 0.024789 0.00650056 0.00093518 
0.018381 0.00728068 0.000943588 0.0270367 0.0076415 0.000952723 0.00264173 0.00787794 0.000899832 
0.0074382 0.00956315 0.000911003 0.0106374 0.00834446 0.000979695 0.0173628 0.00831746 0.000939621 
-0.0021955 0.0090668 0.000967551 0.000376803 0.00901205 0.000932886 0.0161314 0.0101193 0.000951029 
0.0197279 0.00951579 0.000947163 0.0020439 0.0101113 0.00101354 0.0112486 0.0121526 0.00102841 
0.0163371 0.0111681 0.000947246 0.0227718 0.0105842 0.000910055 0.026453 0.00860432 0.00121707 
0.0211678 0.0116219 0.000929006 0.0244628 0.0111433 0.000925965 0.0223802 0.0122834 0.00152805 
0.0256057 0.0145856 0.000897479 -0.00575612 0.0160713 0.000993203 -0.00564464 0.0171723 0.000935612 
0.00124475 0.0166522 0.000931108 0.012154 0.0141163 0.000942212 0.014181 0.0151907 0.000978624 
-0.00844499 0.017231 0.000972476 -0.00690249 0.0177211 0.000994379 -0.00886857 0.0182532 0.00126979 
0.000305787 0.0188039 0.000953807 0.0106676 0.0173282 0.00089712 -0.0097756 0.0190621 0.000953986 
0.0126173 0.0192169 0.000946974 0.00666129 0.0201886 0.000959544 0.0114536 0.019296 0.00115663 
-0.0106605 0.0211123 0.000979723 0.0187142 0.0185066 0.000996116 -0.0119621 0.0220825 0.000975339 
0.0028343 0.0214638 0.000908164 0.00450112 0.0208523 0.000926034 0.0085495 0.0212786 0.00106965 
0.0166879 0.0218083 0.000937419 0.0190646 0.0214016 0.000970955 -0.0118786 0.0231591 0.000986061 
-0.0110173 0.0244133 0.00095632 0.017603 0.0223775 0.000962599 0.00375539 0.0235108 0.000949867 
0.00869934 0.0238469 0.000928036 0.00552806 0.0244302 0.000966174 -0.0107752 0.0256427 0.000979562 
0.0046532 0.0252261 0.00101865 0.0100364 0.0249501 0.000986331 0.0142662 0.025679 0.000922849 
0.0125305 0.0258832 0.000952539 -0.00248931 -0.0292051 0.00220241 -0.00111401 -0.0292787 0.00120083 
0.000955226 -0.0292463 0.000943621 0.00361974 -0.0287618 0.00112547 -0.00654415 -0.0281957 0.00310204 
-0.00554334 -0.0288827 0.0028265 -0.00252791 -0.0281292 0.00274339 -0.00149122 -0.028339 0.00213737 
0.00128151 -0.0283004 0.00155625 0.00555654 -0.0286193 0.000980722 0.00826013 -0.0281258 0.00118035 
-0.0107287 -0.0272719 0.00223453 -0.00363717 -0.0276483 0.00284324 -0.00140966 -0.0272568 0.00107013 
-0.00055449 -0.0277802 0.00179354 0.0025359 -0.0279989 0.00110261 0.00356321 -0.0276397 0.000918207 
-0.0125185 -0.0263881 0.00110087 -0.00765684 -0.027334 0.0023351 -0.00270382 -0.0267443 0.00217109 
0.00182568 -0.026445 0.000952294 0.00330629 -0.0265994 0.00110159 0.00481001 -0.0260139 0.00115185 
0.00606549 -0.0270388 0.000900606 0.00746441 -0.0268699 0.000990209 0.00979137 -0.0272864 0.00120881 
0.0116763 -0.0266555 0.000961459 -0.0135964 -0.0259987 0.00150542 -0.0127308 -0.0254904 0.00188128 
-0.0107342 -0.0252795 0.00205983 -0.00852302 -0.0255735 0.00271769 -0.00466819 -0.02599 0.00215491 
0.000430709 -0.0267489 0.000941761 0.0141054 -0.0256724 0.000983068 -0.0155223 -0.0249689 0.000997788 
-0.011775 -0.0253526 0.00130588 -0.00551395 -0.0251709 0.00184532 -0.00122525 -0.0257392 0.00100829 
-0.000505995 -0.024824 0.00188342 0.00192356 -0.0251896 0.00102006 0.00757682 -0.0257102 0.0010024 
0.0095729 -0.0256131 0.00100529 0.0107088 -0.0255217 0.00099475 0.012829 -0.0256202 0.00102504 
0.0161855 -0.0243473 0.000918528 -0.0166576 -0.0242673 0.00142497 -0.0142444 -0.0243164 0.00105756 
-0.0129539 -0.0242828 0.00139862 -0.0116664 -0.0241616 0.00182279 -0.00796459 -0.0246717 0.00228046 
-0.00489504 -0.024012 0.002298 -0.00264097 -0.0244849 0.00137441 0.00102107 -0.0239731 0.000949439 
0.00261412 -0.0238995 0.000987276 0.0039978 -0.0246612 0.0010049 0.0136471 -0.0244795 0.000951421 
-0.0165982 -0.0230232 0.00100348 -0.0135449 -0.0231653 0.00148389 -0.00158264 -0.0239885 0.000964334 
-1.72065e-05 -0.0235593 0.00099043 0.00615024 -0.024509 0.000986087 0.00789294 -0.0237458 0.00104356 
0.0140795 -0.0231003 0.00101092 0.0147719 -0.0223568 0.00162275 0.0170223 -0.0236112 0.00116673 
0.0178941 -0.0218193 0.000914138 -0.0155002 -0.0228488 0.00147207 -0.0123358 -0.0222805 0.00187532 
-0.00692489 -0.0226443 0.00200504 -0.00552418 -0.0229692 0.00226661 -0.00470896 -0.0231342 0.00117434 
-0.00351673 -0.0229135 0.00105091 0.0018277 -0.0229519 0.000966277 0.00439312 -0.0234391 0.000989944 
0.011962 -0.0232528 0.00100467 -0.0160839 -0.0218668 0.00144849 -0.00907999 -0.0225562 0.00169613 
-0.00424944 -0.0219081 0.00102462 -0.00245722 -0.0233199 0.00124029 -0.000905334 -0.0229498 0.00121249 
0.00321768 -0.0227799 0.00107403 0.00673757 -0.0226939 0.00101668 0.00821153 -0.0226564 0.000974514 
0.016808 -0.0214261 0.00100196 0.0190463 -0.0218685 0.00101528 -0.0194401 -0.0215528 0.00109213 
-0.0152173 -0.0213051 0.000972664 -0.0125013 -0.021159 0.00183142 -0.011338 -0.0217721 0.00156148 
-0.00761553 -0.0216737 0.00210277 -0.00619732 -0.0216687 0.00180471 -0.00493118 -0.0208441 0.00101109 
-0.00302552 -0.0215298 0.00120413 -0.00188985 -0.0220767 0.000992978 -0.000109306 -0.0219815 0.00130049 
0.0014084 -0.0219307 0.00100443 0.00571345 -0.0220333 0.000923898 0.00751364 -0.0217745 0.000932852 
0.0086728 -0.0211702 0.00152243 0.0117496 -0.0208514 0.00140623 -0.0161363 -0.0206673 0.000925468 
-0.0136356 -0.0207324 0.00174572 -0.00873096 -0.0205821 0.00158166 -0.00718541 -0.0205804 0.0019115 
-0.00385115 -0.02051 0.00156648 -0.00258804 -0.0204325 0.0010624 -0.000955858 -0.0212388 0.0010201 
0.000107678 -0.020812 0.00104943 0.00144123 -0.0208429 0.000909482 0.00409009 -0.0212051 0.00093866 
0.00745194 -0.0203032 0.000942088 0.0107794 -0.0211701 0.000965275 0.0184612 -0.0186791 0.00144925 
-0.0151761 -0.0200477 0.000906881 -0.0130351 -0.019815 0.000940728 -0.00663569 -0.0197975 0.000997508 
-0.00153505 -0.020367 0.00159591 0.00238542 -0.0200684 0.000985151 0.00470239 -0.0202627 0.000952306 
[...]
POINT_DATA 17850
FIELD FieldData 6
id 1 17850 int
3541 1821 2418 8145 9729 5947 16087 6815 5274 
9333 17154 13949 12618 15039 17317 8902 15132 12001 
6662 1478 5508 6323 7046 8714 316 2107 16504 
6674 5855 8878 2656 1094 15718 15919 9273 16599 
13650 15766 9822 1778 13075 13182 17134 1240 12502 
12453 4539 17057 3643 5464 9907 3304 6675 16019 
13822 6020 4895 12056 2292 13020 2558 9051 9769 
4126 5540 10925 16649 12780 17075 12154 5424 13709 
1854 4403 1915 5358 6573 12136 17796 15875 7516 
6797 5443 3821 15856 6079 16264 6285 15377 12188 
11504 10304 12308 6875 6057 5901 16693 10148 470 
16098 5368 4880 4087 1042 11232 16357 12157 9910 
17444 2646 1349 5655 910 14999 12576 10212 17449 
17097 17727 3542 16247 9590 16005 3578 9920 12470 
12003 15524 16935 6653 4578 9500 10537 7167 660 
16455 12756 15842 5906 15967 17769 12650 15215 5828 
17005 11737 8261 8329 8506 8106 4718 17731 10785 
10945 6347 13967 7976 1569 3132 12686 16709 289 
16619 402 6668 10171 4072 6634 4555 9487 7641 
2661 1332 5297 10929 5622 11358 3296 12731 7705 
4894 804 6141 8472 6899 1354 17357 7428 524 
16125 17654 5161 10417 1552 3951 8202 4910 8466 
6410 1565 6357 4782 16076 17805 10866 8014 6298 
697 852 9595 1194 5407 7103 14915 8160 8417 
4048 7708 706 6301 16622 8973 4160 3099 5534 
7177 7884 10386 1447 1908 4614 7189 4278 6324 
2017 1294 828 2060 4470 11542 11123 13022 5235 
3419 1543 527 1438 15104 1677 2575 16580 9740 
1623 11031 5447 7853 9891 11812 1938 12264 15007 
9224 2690 1970 2015 12004 2623 9223 15109 8141 
9987 6778 15359 2659 3428 5170 13924 7829 15302 
1056 6998 10251 7299 5980 15898 10660 14940 10282 
17794 6640 2113 8280 13973 4038 12695 5224 8537 
939 13139 13077 9232 14153 12832 10173 17104 3143 
1435 7013 1923 16442 5503 14717 11006 3978 5276 
13710 9283 13119 1739 14414 16627 10670 14868 10669 
5519 13772 1346 9485 11518 10903 11672 15189 15576 
12031 14550 15584 16266 14436 6442 3047 13777 6667 
11301 6995 15858 16940 12245 8996 12033 17611 6521 
10030 12851 10454 6869 13661 8377 605 12226 6530 
7796 13210 3364 11239 518 11324 14022 16240 15836 
4381 121 13871 7534 7197 16278 937 1574 11446 
11115 11371 6437 15142 16041 13103 17178 725 1563 
12047 11413 9467 3768 1872 10006 17640 3367 11286 
15573 15902 14746 2316 14933 5037 8967 10389 6714 
7842 17828 5301 10570 16952 10549 699 17536 13687 
12902 2713 8419 3796 9426 17267 17206 3467 7482 
7912 12521 10567 12204 504 12153 17088 14819 5834 
15342 9415 15439 836 11589 7907 12490 2109 2133 
14035 15884 1461 15713 15782 12428 8415 14163 9151 
13217 9323 4629 13199 418 1462 11154 6174 11749 
10916 14797 16146 92 17507 4886 13054 11847 11936 
4449 2205 6584 15980 12137 2497 14912 12828 49 
2293 16647 13928 15432 10445 7031 7975 14457 13884 
5238 11631 17077 15321 10305 16574 7347 2317 9766 
13695 3767 6320 12326 17175 10103 4777 14447 11997 
12572 2749 8047 3147 2784 12341 1575 16474 2404 
5555 16255 11962 7124 15797 10408 7037 6587 158 
3523 11903 4076 17760 17583 10 10673 6941 3415 
12411 2044 12239 12284 252 9303 6289 4454 14118 
3374 5795 7599 17210 5740 17608 9880 5136 10140 
13503 3327 16009 15987 15589 12946 15722 12386 2501 
9538 10798 8934 472 460 6405 17804 12179 13266 
3018 45 3458 17389 14748 14398 11984 4077 11093 
12182 7589 15022 6915 16060 9969 4013 11408 14544 
10487 13683 11612 3447 6291 8097 5799 2775 1497 
14072 13072 1742 3046 2340 9867 11364 7580 11635 
5026 17725 12025 16707 15043 16901 789 4282 17173 
9089 14989 4342 1244 15658 8492 7880 2638 6266 
14383 5164 2855 6588 4681 17700 16233 8579 15113 
5435 7995 11817 12244 11972 9041 14473 657 886 
6541 15390 16008 13604 12413 12097 883 4986 13653 
9125 3352 17116 7437 5024 15595 16473 2132 6685 
16253 10965 11414 15054 17677 11330 9901 5475 9029 
6609 13767 10553 3402 5018 16741 1990 6162 13100 
11550 5589 8434 9897 7790 10341 16291 2738 7340 
5733 3619 6071 6217 2218 12293 12321 16576 17192 
14397 5950 2465 8840 14633 8667 8306 328 5646 
7502 7170 4407 6832 9139 10760 104 5440 17321 
1315 4665 721 9819 10861 9939 13408 8845 6005 
2011 9439 4122 12468 13038 14733 2719 3276 10419 
2922 4299 6732 10430 10290 3072 5150 3780 1627 
5556 15809 14606 16992 5027 3746 1722 9123 2819 
13889 10620 16617 6728 8909 6651 3966 768 13049 
8668 16493 4936 5778 7398 13726 16739 9106 7119 
2433 10132 16386 6572 13681 15677 3298 6712 4611 
3950 13946 6861 17106 7934 12434 14851 12855 6682 
5585 13282 4602 7049 6535 4605 8613 16822 2227 
16785 17678 1967 3974 5495 4178 3903 15459 16126 
7394 16199 9363 14610 582 13913 3400 15506 1036 
10746 10755 10561 1296 11758 16520 6446 2836 7242 
4642 1737 4847 4542 13200 3538 8085 12786 2695 
13854 3472 15888 7364 9144 15164 1080 16406 4621 
17776 9278 9081 4742 3865 17544 3476 5932 6469 
16863 16826 10754 1833 10462 17791 12175 2486 10937 
12057 15736 1053 14455 13397 16350 17172 3325 1179 
3531 880 4933 818 13863 17619 1786 6723 5421 
2800 15864 14330 3392 17693 7666 17495 6433 12487 
11776 3633 13317 2299 11618 14896 17421 12288 17123 
2376 4994 6935 8450 7525 11675 9634 4463 2584 
9489 3225 140 7260 1560 6812 15042 6892 15272 
14154 12367 7578 9188 14259 7691 2668 13207 8923 
17843 11501 6698 11087 10073 11159 4059 9203 5732 
1612 15312 10455 4250 7155 9682 2264 17418 4624 
12643 1644 9770 13347 10395 2987 9878 4137 10217 
2013 8800 15453 7192 9959 8087 7078 16650 8481 
2160 8806 6973 12819 7770 6546 11577 14095 528 
10208 9321 3977 9600 15604 14213 17473 8858 12740 
3827 8312 8866 14137 8070 11670 12953 1090 11757 
3188 1794 4483 4822 13401 7178 6118 16148 10405 
10890 14241 26 6938 5800 8113 15341 7324 2909 
2829 9061 12302 6237 3727 14842 3066 4106 17219 
9154 113 14973 1067 8144 1519 4010 4953 10039 
4114 4762 15138 10846 13737 8682 3652 17810 14731 
7626 14763 15566 4814 1875 10657 9509 11498 16632 
10469 6855 5989 15284 13977 6046 13934 13237 7729 
13170 14290 305 9022 3988 12108 15719 8993 5999 
16811 15240 5721 17697 6823 13567 16239 17790 3167 
8264 7707 3373 13872 5662 14769 9955 17766 13348 
7381 16913 5802 12871 16578 7902 2081 2080 12370 
10094 14361 9019 10350 1239 14945 12103 212 12082 
10017 41 11739 6095 8380 3324 13220 17285 15327 
11307 7785 13717 2452 8337 15346 15685 14708 677 
7800 13063 14246 4264 16128 5245 10844 7637 16080 
14756 4531 10465 11368 16494 8894 186 6445 12730 
11532 15382 882 8968 5934 15374 6991 3184 16630 
23 2913 12948 7517 2217 11560 5836 12813 14410 
14132 5009 14621 17506 14091 2586 5271 14059 14179 
16190 15237 2400 16756 8359 2090 13016 9028 17681 
13300 7930 14524 16246 1336 8596 12762 11977 9457 
14466 8884 11479 1037 16452 1029 7264 1156 15366 
3613 13662 6454 2325 6335 14135 2194 15984 3114 
11023 13522 12647 1972 10575 2557 8601 8083 3053 
14692 5135 4349 7720 14682 14917 10384 2727 3666 
8694 4314 15123 10196 722 639 7505 17576 5719 
5217 5155 15900 17472 15387 2959 13372 17763 2877 
10288 10292 12775 4749 7247 3912 13236 157 4350 
17502 16261 2012 12600 17585 3274 1658 5637 12134 
7207 6913 1166 213 6359 3697 10748 610 3365 
17526 2312 9593 6034 766 15384 14552 2066 3741 
12527 189 2770 12325 14151 6569 2434 1686 8288 
6686 10274 10210 15971 8951 6204 5684 9299 1632 
8815 8990 16550 7412 9159 15119 13187 15689 2257 
7640 7972 9622 1562 417 4158 14401 1892 3473 
8907 636 16786 149 3454 8696 12296 8350 3359 
4844 266 8741 2122 3481 2629 8863 15869 9798 
10900 4911 5885 4714 8089 17729 7760 14170 8074 
1645 2542 5123 13055 13803 313 2697 6948 13914 
2737 5043 12322 2814 2139 10535 5647 9235 1035 
15328 4442 5496 7249 11887 6905 6067 7835 9243 
1585 7325 4179 10688 6090 1084 10565 4236 12092 
11383 4837 9165 5198 12785 8748 8632 2890 17842 
11576 5008 6749 4691 666 8491 3866 5986 5675 
10072 13497 16738 10216 11126 12228 12147 16271 15086 
6987 5202 14050 8594 4869 7353 516 1635 6900 
500 2204 4280 1164 3733 2027 5500 15852 10032 
110 3406 14642 10840 5664 9490 1933 15397 3363 
12599 8943 16552 881 2786 17092 7400 11374 12551 
1272 16814 7696 7004 5031 8028 6337 8157 16734 
14884 10790 11070 2123 15008 12559 10548 9982 17080 
9524 166 8708 1502 10886 8400 6292 13580 12846 
8941 11505 11822 6519 123 6272 450 14496 6939 
2008 7715 17318 10511 4853 16771 8072 8512 2005 
13273 10095 12807 12107 6840 14957 4904 14745 1137 
3457 6130 13516 8950 13263 11652 558 9258 10714 
13895 12624 8585 10308 14134 9236 2720 1556 5978 
1091 14312 11127 2327 991 10877 3559 1070 8026 
1728 14487 14703 17745 4633 17122 14313 969 5838 
1180 13994 14789 4672 2490 10452 4559 9597 2914 
2397 873 15502 4752 10435 6741 5340 4604 9924 
9443 16879 10951 5239 17226 466 17682 6319 6224 
14860 6018 7082 7239 16805 14625 6599 12939 15907 
11008 7246 8882 15661 10954 4273 15953 1409 17683 
15927 7876 1868 13206 1392 12528 14799 10888 8584 
8134 10401 16294 15457 13470 3206 5941 11623 16391 
8969 5756 1891 13795 2707 16193 5578 10001 9567 
7623 7121 11455 9003 11297 3980 14787 11945 2274 
6189 15908 10016 17625 13742 8101 7781 594 869 
2968 1732 10828 15622 13269 11549 8011 14760 8747 
16933 9045 1220 6317 3752 16749 9307 7932 2500 
13485 4458 4293 550 234 16306 11084 14943 15818 
2657 14373 16421 6278 6044 10424 17274 11475 16765 
6341 8777 11502 10802 7998 12590 12923 7887 13482 
13010 5383 2728 16603 2925 6880 1025 11905 8932 
16404 9401 13868 6975 4873 9376 7477 14548 11568 
14088 8372 10500 7646 9771 17224 10610 11264 12777 
12771 3460 2554 4025 6396 16400 5692 8496 9655 
6172 12497 4671 14556 4161 3645 15774 12867 12390 
17349 6904 4190 17615 17392 8887 577 7536 14188 
10398 15727 4510 406 14589 15565 8184 15674 13172 
9748 16642 15590 12282 9703 9688 3255 9122 1707 
2253 10990 11738 9344 8717 10522 1940 14129 9687 
5317 5226 362 8344 5801 15224 8621 4154 7496 
9756 14433 6810 13308 12909 9722 9245 13974 8130 
40 9761 6517 16818 7139 15686 12037 11586 10359 
14431 2517 7444 3106 14713 12010 4274 12964 9074 
16768 8598 16453 8795 11527 15225 2062 1494 3009 
432 7332 9944 5415 1678 17211 687 4309 13076 
10946 16163 9693 15530 8446 14900 8177 1879 13519 
5833 11196 16551 13891 15788 15628 2446 1491 16211 
8079 8880 1414 12699 6150 3743 718 10014 9063 
17558 2337 426 2155 6271 15773 16918 2757 13118 
7700 9038 9168 4493 12971 13178 7574 1303 12476 
14809 2355 14109 2488 3603 15093 3933 12919 8080 
10335 8801 11418 15555 16616 13 16382 15466 1428 
3505 10353 4109 11270 3320 4212 7480 17622 17190 
12905 16117 12040 7377 14681 3738 11975 7169 16293 
918 5230 15391 498 1763 2335 13457 8399 15503 
1391 12114 13113 12824 10289 15307 6740 15222 10518 
2310 15322 4716 7891 4612 151 12581 2463 9138 
8635 11877 13713 3425 13985 14300 5798 10652 15636 
11732 12340 9894 7797 11078 4456 1597 2626 14202 
16053 8428 12743 12789 8540 4397 10257 562 10914 
1399 16182 16532 5090 11253 11294 1152 5615 9002 
5702 16245 4556 7966 17532 8140 926 4972 2157 
8685 14254 5527 6101 13890 14354 10214 16813 6560 
9806 16566 5182 3118 16753 17264 12802 17328 3446 
17665 5342 4499 4664 13585 11760 17205 6772 12480 
15195 11179 11855 10272 15509 11432 8307 6798 11024 
15641 17673 15174 7029 12516 2266 10830 6082 2215 
14794 1783 2077 3896 11536 5638 2881 14855 2568 
8456 14905 11651 8104 9295 11580 5909 8875 3409 
15672 15197 14418 17744 12677 2246 1456 161 12368 
1077 15527 10300 10920 13403 6480 10367 5099 462 
15876 10973 14122 15938 12140 4815 11436 9892 5268 
3148 6052 2602 10924 7322 12466 12499 13046 14053 
8693 9124 5701 8915 11678 10977 14775 7313 13359 
14526 612 7832 6420 1143 4089 8146 16974 9563 
10667 4587 14593 12393 16959 589 8607 10674 16529 
8021 11493 3565 75 9267 16953 8711 1764 2844 
228 14268 10118 5000 17093 16430 11419 17705 13881 
17209 10709 4467 13104 6388 278 9149 5843 727 
6085 8175 12493 13398 1897 14969 17616 11880 384 
4131 9641 16237 14663 8622 13422 6058 3128 3889 
1527 3993 13705 2998 9669 11830 5352 3361 15721 
13322 16435 14480 16349 17688 3650 531 15055 1973 
135 9080 13796 16380 15241 7096 9762 2983 13411 
3726 2996 11430 2600 9059 6986 15744 16161 13716 
6505 7925 6803 1449 17844 1145 6498 3941 456 
4943 560 4052 2440 1465 3894 13691 14446 15784 
14233 5281 7579 14443 3498 11844 5657 5905 11390 
6932 5988 6143 11447 825 10639 3766 5830 13549 
5971 9647 16538 4969 1066 14347 2865 1059 2363 
7568 4973 12764 14395 12142 2632 9705 7613 8182 
15687 16724 15850 7929 15232 13824 13209 14333 5804 
10747 3792 11865 8560 12883 482 6407 16359 6547 
13545 3260 10976 4908 9416 5220 10776 5948 4574 
964 5122 3679 9714 15579 11149 4326 11659 10703 
1515 16850 11980 6540 15166 9796 15318 11026 12221 
2258 6502 5536 8623 5404 2748 16173 1807 1934 
12889 14272 1253 1263 14521 11679 8425 2643 2565 
12225 2601 2415 17812 11105 16987 8120 855 9373 
4017 13144 14961 16905 9750 8294 14352 12500 12314 
15214 14874 336 225 5973 6930 2435 7636 4634 
9349 12081 2562 5346 9529 11989 3020 6072 15275 
13214 3776 9009 1199 6561 2120 54 16093 10963 
4607 2569 11895 9605 8530 16450 2763 10661 6207 
8161 5990 10143 7871 11140 4426 16692 10407 13084 
9438 17768 13029 2817 14518 16643 2306 2070 5803 
7455 6009 5554 11835 3078 1882 6703 6235 8042 
17589 6814 2365 16948 10060 16503 13355 12664 14470 
7559 11546 15533 16210 14195 3134 2301 15712 5471 
14911 9528 4549 9378 15179 9355 17026 367 16437 
4506 1894 12912 8705 16936 8322 3345 16928 12105 
16698 13688 10749 12143 11839 7571 2373 2288 17163 
6441 7968 14646 14995 10278 1825 4918 15380 16718 
16206 16844 1154 15889 12306 12746 7365 4561 14227 
5515 11162 8078 6947 3698 2995 4009 8847 1671 
11309 9953 12305 14939 3660 55 2491 9234 10326 
12369 15763 12751 14659 5642 17644 5512 7017 17336 
6787 15833 1241 12135 14944 12684 9177 16196 58 
7722 10189 7384 15678 10521 13784 6121 7252 16 
3434 4450 17649 6133 15911 5790 4865 7067 11780 
11710 14773 2307 2525 15147 11815 13987 3598 5620 
13712 4590 1046 3549 14260 1984 7160 3427 16345 
10451 12062 15746 12494 3443 17407 15631 12712 9488 
2880 12865 7006 10449 2277 6870 11886 7530 8922 
16922 10298 7687 8547 8981 7030 2468 9082 7475 
8235 17305 16167 15532 5560 8862 8464 8323 12888 
2982 3064 13608 13413 12183 2352 15135 15211 16954 
6681 16047 9890 3202 12265 8327 8823 8459 6290 
5338 5594 17830 15950 14951 4143 15705 2579 8985 
9186 13345 2231 12715 14105 14845 9095 5916 7994 
4855 2496 11347 16127 12952 9436 6134 2209 618 
15574 3199 4019 6268 13052 1824 17293 5755 11121 
15254 2191 12294 2196 7244 13068 3098 3575 17519 
9262 3267 7647 7098 1902 11241 12627 6280 3060 
5815 9856 2730 2172 9298 5125 12024 6828 2801 
2978 12231 11488 8169 1754 4094 4651 15859 17795 
8562 16615 1655 9107 15621 3263 4260 10116 12395 
4771 15244 3036 6474 6647 8035 1835 13947 12882 
17136 17335 4191 4473 1949 4492 8504 6631 2768 
11860 10624 1784 13074 10115 14857 5592 6760 7331 
130 4591 15792 12765 14168 3023 13563 4054 15452 
10685 12773 1553 1173 4862 7795 2199 5332 69 
10233 2545 5939 1329 511 3453 9328 12437 182 
10302 2234 12252 15460 12876 1265 11204 16459 16602 
11966 6249 6623 1942 17730 13971 4650 11005 13340 
15754 7554 12005 3030 15098 14372 7629 5683 15583 
4989 13051 3311 3876 9282 13997 12332 12713 12022 
13017 7778 1333 5923 1109 14923 8762 7991 4630 
8055 13270 5052 12328 5048 6524 7683 9840 14577 
1805 6912 8927 5070 2169 11476 7146 13324 11372 
11075 1064 2615 7351 9610 11402 12955 11665 4786 
7980 7459 11411 8536 10376 14637 17248 12542 1242 
6251 8886 4568 4781 11218 15033 12518 17423 16081 
162 13673 14403 4208 15049 11584 16336 1274 9552 
8300 8765 14863 2917 6149 17250 16330 14100 1457 
3551 7014 10692 7743 2759 7432 515 12202 10316 
10991 8200 1352 12595 16731 1316 11529 6971 6026 
8065 1890 16856 7759 11899 15282 6241 13079 11188 
8755 10645 8651 10456 3048 12755 13965 12800 15102 
2744 7885 12558 17275 8813 5891 2261 13386 13487 
14427 10718 8921 13156 8521 16539 3714 16396 10572 
17148 2202 5645 13353 14525 2618 10715 7836 6201 
14704 16112 17481 5036 8064 17701 2006 90 17735 
7612 5676 2652 10574 12208 13275 6138 17826 10097 
8518 14568 1895 16722 2649 8060 12709 8706 12327 
14866 1699 2888 2174 145 15100 2703 13438 597 
14588 15451 14252 16729 13463 2760 5776 2915 5006 
1225 17291 4811 15424 15323 10280 10483 15872 10018 
16655 12821 3911 4068 7917 7265 2221 7765 10061 
16594 8497 16512 16328 17149 9327 8462 14762 15465 
17182 16860 15990 5322 8094 4445 13743 17159 16381 
15616 14946 15484 6343 16369 16007 8445 11473 6061 
13702 10919 16289 12945 14214 7908 11976 9314 7586 
17233 16740 15047 6432 10653 11045 14822 15345 4773 
10354 17409 9093 11861 15000 2159 4976 7735 630 
3964 11593 15247 17579 14107 16320 8061 1308 4804 
7545 14471 7255 11904 12242 13968 5138 8779 1796 
5529 15512 6926 11647 9637 5504 4185 11046 5997 
7195 1230 3452 1830 13267 1112 11616 6423 2007 
6555 2598 14954 8333 1122 8850 758 15490 8362 
15470 13802 5564 6329 2948 8937 7879 10889 9462 
6851 9695 6105 14615 5725 7112 1766 1074 5310 
1326 17651 9375 7370 6053 10559 4327 16558 14836 
10079 9483 10708 11725 17283 4563 11315 1281 5463 
856 2612 4601 12685 13933 6277 17603 3108 17447 
5183 9160 3840 4544 4127 14490 17379 9749 15206 
4548 7581 2367 10040 6155 3029 4883 7289 16893 
11480 12704 15844 16265 7513 11795 5003 5151 8868 
13123 2992 10957 5794 2693 10028 12352 3213 9845 
4102 1539 15915 14938 6264 13085 11856 10805 10264 
8139 3101 10168 3870 5851 4913 13926 11094 15992 
14051 7056 4693 7140 11345 15337 14970 290 481 
6094 4725 8740 15192 12009 2428 3712 1063 14453 
7869 13753 4146 9954 13927 5964 5522 11380 7011 
6821 16389 6806 16611 16249 2475 7158 4422 14326 
13564 17450 3228 16017 13678 13819 9446 9281 3952 
14752 6070 4007 2119 6004 11233 1169 2171 8701 
15204 6137 710 11431 15052 2776 11235 6807 7174 
7703 13247 6931 10713 11949 14388 3878 8913 17237 
9216 1475 7596 12885 900 497 9495 7127 5206 
6836 9829 16864 10135 2405 12373 2679 14816 5454 
12761 10695 15023 7936 134 17529 11 13128 12510 
4303 7476 3329 7115 10136 1912 12449 7424 17223 
13847 7309 11000 5403 17028 6169 6040 6103 4159 
15353 3785 2686 17591 3054 9981 16011 11211 8217 
8511 10753 9338 10090 3253 10198 12833 17018 4448 
6580 3155 584 1880 12353 10158 15601 8352 5935 
3121 752 9414 5060 13164 11482 12235 12122 14590 
16508 10971 3965 16461 2899 5898 13366 2499 13845 
1685 12696 7761 1817 8593 604 8728 16661 14605 
3655 11956 8542 10137 10328 10956 8843 1898 820 
5059 2033 17044 6198 5131 16748 6978 3591 10119 
15418 5390 13014 12957 9594 201 12985 16422 3236 
3924 4 11191 9156 1023 15793 11317 16970 5929 
9169 7860 2451 9289 29 6780 9785 15168 16832 
17737 17078 9799 15791 2392 133 1798 7867 9989 
7126 1377 1006 4584 15437 5528 8440 3900 12269 
13227 9837 14116 15750 3229 14087 17228 15843 13035 
6701 13811 4451 8302 17047 1030 2673 1353 3033 
14332 3647 9300 4420 603 6776 8023 5391 5691 
11163 13861 10833 9565 10113 5064 7012 5481 4040 
10902 1095 9494 7039 4959 1278 195 9838 11819 
14344 6598 7659 8591 10510 17820 3854 11346 12987 
13071 71 17501 14507 1662 1941 12604 6868 822 
2527 12363 10460 11622 14656 17835 13475 17455 13837 
344 5473 13509 10283 1085 12840 15923 767 4255 
3278 6092 3954 6824 663 10412 5587 5584 12008 
10609 4765 5279 9701 8936 13452 1837 8469 17816 
3303 2207 5144 5629 2541 17032 1002 2056 4751 
7566 16757 6531 12377 3478 12924 12441 16465 13850 
15983 1517 7448 4703 13453 10644 16683 13670 15334 
10576 11266 9486 10273 307 3277 14215 3356 2268 
10297 4030 14369 11838 374 6229 1350 3499 10306 
17457 10771 1853 7345 1471 2949 2375 8890 15431 
17033 7655 15468 5478 9739 2873 8412 2390 6563 
11135 1499 16919 7162 12634 9206 846 10643 3508 
13815 9241 1687 4003 12417 1652 10402 9205 7008 
4023 9302 9428 9571 5307 11742 14335 17262 114 
10429 4813 12420 12579 2476 6111 11311 12038 2085 
12479 1381 762 15283 5873 7285 13616 17733 7654 
17511 5789 1608 16478 2874 3918 14320 5595 649 
13669 11939 4259 4290 12994 2272 1261 4818 9804 
5252 10112 2220 13342 16743 308 7855 6597 16440 
15219 3376 9015 15478 9666 13879 5191 100 11985 
13298 10279 10325 15822 17388 6427 12908 4565 17183 
8278 17777 2593 13384 15940 4699 14261 7657 10912 
2832 9966 2387 9171 2792 8392 7443 14576 7361 
15716 8994 12049 14953 15067 8189 1988 11467 16854 
16353 4443 5334 14537 12086 2334 13704 11967 6734 