# vtk DataFile Version 5.1
Generated by LIGGGHTS
ASCII
DATASET POLYDATA
POINTS 17850 float
0.0167862 -0.0235066 0.00232787 -0.0257762 -0.0139381 0.00274845 -0.00367672 -0.0138255 0.00255845 
-0.00918959 -0.0115579 0.00211651 -0.0270276 -0.0115631 0.00337517 -0.0241724 -0.0120929 0.00256831 
-0.0109542 -0.0105657 0.0023392 -0.00350869 -0.0123332 0.00265273 -0.0259855 -0.0112039 0.00276922 
-0.00614298 -0.0110356 0.00248939 0.00234491 -0.00846764 0.00185335 -0.0268105 -0.0104025 0.00288413 
-0.0032178 -0.00985766 0.00242849 -0.0252172 -0.0101681 0.00276484 -0.00876404 -0.0088484 0.0025305 
-0.0272097 -0.00831056 0.00291949 -0.0249857 -0.00839805 0.00270112 0.0056731 -0.00522073 0.00199596 
-0.0210263 -0.00370949 0.0019689 -0.0191676 -0.00399447 0.00183477 -0.0124632 -0.00401141 0.00233612 
-0.0181289 -0.00276286 0.00239933 -0.0161198 -0.00272914 0.00245717 0.00928477 -0.00402134 0.00222117 
-0.0150167 -0.00218235 0.00278772 0.0206729 -0.00322702 0.00168678 -0.0260908 -0.000652293 0.00213636 
0.00958422 -0.00171451 0.00223782 -0.0178453 -0.000198303 0.00240633 0.0276393 -0.0012384 0.00250333 
0.011881 0.000147246 0.00209177 0.0170712 0.000493096 0.00232981 0.0220646 -0.000717281 0.00249425 
0.0182397 -0.000122942 0.00223679 0.0222309 0.000868318 0.00244365 0.0239492 0.000792309 0.00206654 
0.0253473 0.00140142 0.00235534 0.0273577 0.00249539 0.00223121 0.0290552 0.00395102 0.00244687 
0.0133183 0.00412201 0.00191555 -0.0234387 0.00644371 0.00215848 0.000211895 0.00593459 0.00202048 
-0.0271343 0.00826079 0.00260216 -0.0222626 0.00794813 0.00226752 -0.00661406 0.00869495 0.00199706 
-0.0122007 0.0143831 0.00131419 0.0146994 0.0158235 0.00172767 0.01237 0.0162645 0.0019148 
0.00599146 0.0164895 0.00236021 0.0100941 0.0186705 0.00213691 0.0123022 0.0179101 0.00199695 
0.0141366 -0.0254518 0.00214325 0.0127004 -0.0253632 0.00290769 0.0138243 -0.0228227 0.00246518 
0.0159386 -0.0219645 0.00220389 0.0194758 -0.022047 0.00229343 0.016449 -0.0204703 0.0021885 
0.0188944 -0.0206331 0.00225272 0.0197598 -0.0200061 0.00225843 0.0163745 -0.0190581 0.00219726 
0.0184419 -0.0193 0.00220097 -0.0147252 -0.0165735 0.00255999 -0.0236821 -0.0167907 0.00194667 
-0.00639222 -0.0169586 0.00223065 -0.0105317 -0.0158097 0.00182816 -0.00443474 -0.0158284 0.00257906 
-0.00325962 -0.0153955 0.00255432 -0.0250915 -0.0153614 0.00219977 -0.00606904 -0.0150154 0.00285649 
-0.02419 -0.0146392 0.00240044 -0.0226897 -0.0136835 0.00206669 -0.0126432 -0.0132212 0.00227504 
-0.00709432 -0.0137999 0.002558 -0.00424662 -0.0147312 0.0026572 -0.00905106 -0.0125879 0.00257349 
-0.00589392 -0.0134874 0.00323134 -0.00490917 -0.0135764 0.00268993 -0.00265129 -0.0133582 0.00273256 
-0.0236705 -0.0131264 0.00251911 -0.00793744 -0.0124979 0.00268485 -0.0061012 -0.0121439 0.00258775 
-0.0048888 -0.0123997 0.00283423 -0.0255706 -0.0128447 0.00278959 -0.00265636 -0.010903 0.00228274 
0.00230917 -0.00956797 0.00167214 -0.024445 -0.0109529 0.00282398 -0.00936132 -0.0103563 0.00243213 
-0.00806945 -0.0112812 0.00266313 0.00131896 -0.00908354 0.00178137 -0.0261142 -0.0103788 0.00382878 
-0.0236011 -0.00905287 0.00242696 -0.00710404 -0.0095512 0.00260595 -0.00219048 -0.00937918 0.00251574 
0.00387152 -0.00933604 0.00143452 -0.0280237 -0.00898427 0.00286123 -0.0117626 -0.00953973 0.00225253 
-0.00559402 -0.00848431 0.00154676 0.00144525 -0.00778042 0.00163308 0.02816 -0.00852 0.00287943 
-0.0233019 -0.0079277 0.00267382 -0.0224383 -0.00889502 0.00225731 0.00545269 -0.00799082 0.0022165 
-0.0280615 -0.00748137 0.00293951 -0.0266488 -0.00622536 0.00245375 -0.0214472 -0.00780514 0.00228204 
-0.00737928 -0.00694444 0.00237142 -0.00455679 -0.006678 0.00196013 0.00161963 -0.00663507 0.00174731 
0.00406102 -0.00696506 0.00222023 0.00465841 -0.00584929 0.0020983 -0.0282384 -0.00601408 0.00233557 
-0.0254067 -0.00591584 0.00224887 -0.015193 -0.00650921 0.00206584 -0.00749183 -0.00554109 0.00187961 
-0.00100596 -0.00671059 0.00234307 0.000684661 -0.00703905 0.00223557 -0.0264008 -0.00500179 0.00233266 
-0.0170373 -0.00424919 0.00234292 -0.0149313 -0.0054858 0.00252601 0.00869866 -0.00495313 0.00240483 
-0.0181948 -0.00390843 0.00282109 -0.0143129 -0.00429627 0.00233572 0.00320221 -0.004844 0.00185077 
0.0100893 -0.00472312 0.00190533 -0.0228951 -0.00401669 0.00230494 -0.0219574 -0.00311638 0.00292801 
-0.0156443 -0.00404425 0.00234197 -0.0023997 -0.00420642 0.00256627 0.00740302 -0.00325766 0.00188976 
0.0139695 -0.00458216 0.00211867 -0.0244972 -0.00289786 0.00236254 -0.0200015 -0.0027047 0.00246691 
-0.0172398 -0.00324532 0.00293825 -0.00915838 -0.00274995 0.00217133 0.00707541 -0.00224126 0.00184288 
0.0108414 -0.00360493 0.00218002 -0.0190439 -0.00190225 0.00229106 -0.0171799 -0.00209915 0.00248891 
0.0145102 -0.00309211 0.00244546 0.0159553 -0.00264547 0.00227548 0.0229914 -0.00316951 0.00164091 
-0.020527 -0.00171213 0.00219513 -0.0117769 -0.00161468 0.00238043 0.0142888 -0.0015425 0.00229694 
0.0174329 -0.00284234 0.00230472 0.0220337 -0.00289072 0.00219081 -0.0198566 -0.000628487 0.00270389 
-0.0132867 -0.000218337 0.00225277 0.0162865 -0.000245209 0.00229595 0.0186386 -0.00154247 0.002357 
-0.0146713 -0.000604933 0.00244147 0.0154123 0.000483344 0.00238564 0.0198655 -0.000513439 0.00244345 
0.0231778 -0.000964571 0.00248321 0.0244373 -0.00093386 0.00244269 0.0284376 -0.000495779 0.0025345 
-0.0153871 0.000118299 0.00168496 0.0108227 0.00105493 0.00237888 0.0253477 1.01879e-05 0.00225792 
0.0274114 -0.000128929 0.00260507 -0.0139802 0.00210548 0.00223925 0.0121755 0.00291665 0.00190111 
0.0145969 0.0026017 0.00230197 0.0149186 0.00147256 0.00217693 0.0171801 0.00191449 0.00184587 
0.0210753 0.00105457 0.002681 0.0211724 0.0029514 0.00237953 0.0234074 0.00178842 0.00207865 
0.0246762 0.00363784 0.00226367 0.0268218 0.00423004 0.00264829 0.0211939 0.00407291 0.00236445 
-0.0248932 0.00481746 0.00169839 -0.0228266 0.00470213 0.0023514 -0.0216104 0.0047514 0.00259233 
-0.0152544 0.00486614 0.0021923 -0.00206125 0.00501129 0.0017995 0.0201606 0.00435886 0.0023727 
0.0210106 0.0051619 0.00216771 0.0278726 0.00476108 0.00264235 -0.00588969 0.00425292 0.00149089 
8.30343e-05 0.00493805 0.00226702 0.0275631 0.00598862 0.00214614 0.0288817 0.00534017 0.00222114 
-0.0283779 0.00572777 0.00179382 -0.0215655 0.00676648 0.00209917 -0.0176632 0.0063385 0.00253115 
-0.0153183 0.00640952 0.00248039 -0.000818811 0.00610601 0.00182101 0.0190971 0.00561048 0.00212072 
0.0263742 0.00729656 0.00243739 -0.0265138 0.00736426 0.0018456 -0.0207416 0.00789366 0.00242214 
-0.0138734 0.0074031 0.00196305 -0.0111431 0.00745267 0.00210873 -0.00628205 0.00648111 0.00159772 
-0.00703327 0.00752602 0.00184517 0.0186914 0.00706214 0.00239093 -0.0277443 0.00911068 0.00218233 
-0.0188662 0.0080047 0.00207495 -0.0173733 0.00885812 0.00220714 -0.00411864 0.00830156 0.00165912 
-0.0240469 0.00909306 0.00207344 -0.0131194 0.0114126 0.00130414 -0.00837271 0.0108045 0.00179242 
0.0108822 0.00902212 0.00182109 -0.0225804 0.0102811 0.00199282 -0.016732 0.010656 0.00190091 
0.0044506 0.00967254 0.00202111 0.0107059 0.0101046 0.00176059 -0.0209689 0.0101856 0.00211153 
-0.0156257 0.0107143 0.00292375 -0.00753661 0.0140371 0.00148726 0.0130512 0.0108825 0.00187656 
-0.0162461 0.012648 0.00240262 -0.00859774 0.0131382 0.00138783 -0.000395036 0.012415 0.00144833 
-0.0144296 0.0119348 0.00192235 -0.018879 0.0139675 0.00177189 0.0157603 0.0136529 0.00175918 
-0.0170548 0.0150849 0.00167694 -0.0127964 0.0141816 0.00215199 0.0137494 0.0146162 0.00228273 
0.0155887 0.0149056 0.0018037 -0.0168887 0.0162895 0.00145422 0.010587 0.0161218 0.00211985 
-0.0140683 0.0165682 0.00200958 -0.0154259 0.0167245 0.00151731 0.00980261 0.0176026 0.00198642 
0.010878 0.0172277 0.00200778 0.0139707 0.0171569 0.00203126 0.0174229 0.0182451 0.001797 
0.0089705 0.0188842 0.00217703 0.00697897 0.0184738 0.0018152 -0.00661667 0.0211764 0.00148141 
0.00609236 0.0209999 0.00213632 0.0187094 0.0214286 0.00179847 0.00400695 0.0214232 0.00184058 
0.0132807 0.022082 0.00174026 0.0174369 0.0218393 0.00192482 0.017664 0.0233027 0.00165729 
-0.00104131 0.0220968 0.00212871 -0.000289054 0.0230984 0.00227778 -0.0015193 0.0236296 0.00170326 
0.00556115 0.0260224 0.00174377 -0.00352272 0.0253338 0.00198789 -0.00641753 0.0261139 0.00222376 
-0.00010702 0.026767 0.00178954 0.00458968 0.0263606 0.00146026 -0.00653815 0.0270962 0.00176451 
-9.36384e-05 0.0292348 0.00147567 0.00504318 -0.0286873 0.00346619 0.0116919 -0.0245931 0.00274382 
0.0159506 -0.0246664 0.0024413 0.0128168 -0.0233784 0.00269506 0.0145064 -0.0239068 0.00283494 
0.0180204 -0.0231715 0.00273519 0.0157711 -0.0231342 0.00253322 -0.00470515 -0.0225584 0.00326498 
0.0123339 -0.0202965 0.0018624 0.0146806 -0.0211837 0.00233853 0.0159494 -0.0213909 0.00326995 
0.0174661 -0.0221896 0.00240672 0.0202315 -0.0213271 0.0025226 0.0153492 -0.02026 0.00239324 
0.0212356 -0.0203684 0.00259966 -0.00780477 -0.0204181 0.00335256 0.014097 -0.0189251 0.00202483 
0.0158652 -0.0177762 0.0019339 0.0176286 -0.0184233 0.00180096 0.0190908 -0.0180263 0.00218866 
0.0181484 -0.0171727 0.00204923 0.0210798 -0.0172323 0.00163877 -0.0103431 -0.0169395 0.00204519 
-0.00240653 -0.0160849 0.00237859 0.0244794 -0.0160904 0.00246527 -0.0228564 -0.0160853 0.00235388 
-0.0218145 -0.0158148 0.00248945 -0.0143835 -0.0151829 0.00281495 -0.0132339 -0.0162484 0.00303228 
-0.00741129 -0.0153076 0.00252435 -0.00591381 -0.0161965 0.00287749 -0.0238368 -0.0156624 0.0021017 
-0.0125386 -0.0163082 0.00203572 -0.0111763 -0.0148528 0.0021631 -0.00953564 -0.0138909 0.00236227 
-0.00205492 -0.0145398 0.00207927 -0.000130715 -0.0141989 0.00220079 -0.0253326 -0.0148884 0.0032029 
-0.0212654 -0.0147121 0.00168363 -0.0207277 -0.0136482 0.00165551 -0.00836195 -0.0134781 0.00306463 
-0.00309228 -0.0146112 0.00332476 -0.0246444 -0.0136502 0.00287607 -0.0234611 -0.0140829 0.00299561 
-0.0185353 -0.0130716 0.00157527 -0.0139542 -0.0123589 0.0016588 -0.0100877 -0.0129499 0.00229311 
[...]
POINT_DATA 17850
FIELD FieldData 6
id 1 17850 int
15966 13904 5397 6196 10068 2513 17683 9359 10381 
2205 3463 2950 11645 6209 4670 11870 5105 7966 
4700 12098 17678 15774 13282 5451 11699 6776 12877 
2376 17149 12157 10971 4828 9856 9900 11132 17319 
17618 12576 6095 657 11855 6127 12152 9252 12312 
12254 12687 6212 8523 628 6192 2446 4881 8568 
6842 16634 2060 16872 17353 6457 16257 6249 4270 
12037 14049 16142 6386 5505 2293 8155 4728 245 
2924 945 8266 14897 14479 9485 8872 5317 17332 
38 671 16414 16968 3251 9625 2572 14453 5952 
17702 14481 10596 3637 11778 10254 5801 2723 17377 
15658 14017 1344 2669 12121 6264 16470 17811 3147 
4874 7051 8320 3154 4014 8777 17083 4076 1361 
4665 5599 1786 17222 3152 12885 16245 10788 14003 
13092 12425 3839 6919 4024 2679 3705 6646 5987 
12604 4849 17660 9963 8140 10792 12192 11703 15512 
14054 1853 16467 15509 12455 6506 2819 4973 7804 
13810 3221 10800 5753 17084 12795 12368 8001 12014 
2037 9731 16037 3500 7080 1838 4992 2519 12792 
5942 16430 12141 10172 14733 9970 4229 7661 6892 
17202 14013 17503 5929 3655 11949 2845 11430 8287 
17350 17169 9396 12100 17109 6590 3370 11292 9124 
17258 1399 754 1550 6633 2761 16481 14010 9953 
6875 12647 2898 8012 8486 15213 3014 12701 8560 
10640 10774 1954 1703 5387 15868 15240 10217 10491 
16903 701 16055 9903 11770 5836 10654 2714 10115 
3930 7362 14723 9540 8514 8566 6358 8366 6736 
4400 5658 15971 8076 6887 17790 17452 5318 8478 
3543 16699 1607 11525 15077 994 13383 14173 13067 
13018 5542 11751 15935 3781 8494 102 4358 9461 
11740 9064 15640 4355 15141 742 16105 13792 13357 
10114 3718 645 4550 15231 640 15853 7437 4730 
4788 11184 10006 9456 13997 6231 12187 4285 6235 
8695 1232 9274 7048 2943 11861 2852 10610 15786 
2265 16732 933 2704 4562 2522 2045 141 12009 
17412 13895 1036 2344 12688 5750 5412 12137 6378 
2417 16448 16933 2461 11256 11669 10450 5941 8138 
11330 12724 14093 14519 4414 7145 11319 3470 2459 
9930 883 14116 11971 5919 7444 16043 11106 11035 
7093 3175 14436 2992 14986 12320 8290 16818 11101 
11745 14215 11901 15559 10509 7214 11460 10029 17791 
12777 10458 8663 13569 470 15405 8889 776 6994 
16642 6317 4445 444 10497 17038 6052 17134 12222 
13474 7371 1408 5568 3617 13020 7913 1506 12466 
5504 5349 4131 5532 17320 13005 9227 15388 1605 
6712 234 2626 4575 16952 2269 7039 5864 14413 
15242 12308 17369 2780 10896 14736 7087 11333 1040 
8644 11395 11289 4924 6562 9613 11695 16705 1599 
3446 11952 11191 4547 16904 16498 17693 1111 4596 
10752 13359 15962 2800 14178 2991 17292 4171 17287 
5296 6701 5520 5983 7302 7880 10273 696 7478 
1580 2072 5145 6079 281 12244 8915 1235 3505 
3816 6158 11323 11792 8175 12104 5588 8774 9493 
4895 16892 8657 8284 15432 15205 8107 15255 17771 
6711 11865 5180 744 576 13654 8445 3472 3953 
16688 7579 11884 5840 1318 6194 996 1223 15666 
15393 15154 9671 341 6740 5059 8220 6966 5573 
8420 15264 7494 10861 4883 12737 12318 16110 7355 
9508 11392 4313 5030 13819 17180 16291 10695 2858 
16955 9152 5787 13951 13054 5248 187 3179 16862 
5452 8452 12063 6164 9002 16922 7266 14726 14329 
993 643 8167 7952 10612 13173 10372 14532 3920 
15319 9696 10403 4018 6867 4632 913 17228 641 
5854 10560 14512 9948 14459 4543 8675 2486 6897 
3633 8040 12266 5463 13266 12306 15401 89 13764 
14793 10812 13445 7970 16464 3184 6570 13373 11199 
13861 14405 94 9645 16517 12472 17810 10390 4046 
13987 1371 10257 1719 3663 1050 12805 13647 16169 
1977 12672 10297 12419 3272 2661 3784 17774 16555 
6768 14904 17495 602 13354 3533 13885 16034 6265 
764 4467 11757 13878 6467 8847 6384 17592 13611 
2873 7390 7664 14973 1234 5979 15082 8259 12209 
6765 10021 3788 15330 896 830 1296 12117 17576 
13424 17781 12527 15531 551 14038 11491 16452 4569 
7509 14874 5471 12257 15157 1065 8335 9226 10459 
11155 17041 17630 288 6284 7674 3769 4256 14770 
11013 3673 11407 12203 11422 7741 17736 9998 70 
6540 4081 9235 5297 7447 7909 12247 12417 7787 
629 13002 9147 3185 14454 5971 17514 6791 54 
17257 5668 17812 1900 14705 17517 5381 14515 10630 
271 7176 13514 17415 9662 12135 572 12087 5488 
16764 15665 17368 11484 11290 14117 9681 16781 12051 
1928 5051 4429 5480 1368 3829 15473 12115 13225 
6817 10618 11084 7439 15235 16633 13306 12344 6847 
13528 6706 15246 11976 6405 1811 10286 8536 15307 
8788 12823 15877 1462 6085 8079 14192 17286 13883 
950 8073 13252 9232 7321 17212 17433 15279 12573 
1392 9113 15270 14367 472 16293 17367 111 10368 
9656 12097 9405 17245 13869 9809 7292 6530 6155 
2759 3748 17709 5649 12520 9502 8798 15963 508 
3108 5365 3858 14388 9747 8442 13077 10498 9510 
17464 5422 15081 1080 8441 13683 14408 10270 8647 
15175 11231 9481 9526 6560 9642 9467 11031 7301 
15686 11501 7901 2460 9922 9607 11476 6341 9148 
14835 4971 17337 11853 17601 12942 15969 11957 11185 
6206 16397 7719 9371 10345 14670 11589 16679 839 
3767 10264 4079 10062 16687 14257 1708 1685 14106 
13485 10479 7045 10931 17309 1055 5795 9743 17211 
15867 537 13893 5508 5671 3514 3109 13652 11338 
2969 15439 11072 15344 8681 4625 3922 7121 10398 
17380 2838 11269 8710 797 6071 162 678 5234 
5441 14799 11030 8898 12625 15824 9027 4127 914 
3517 8783 9626 10329 11148 2711 6068 8943 14028 
7886 9123 16588 17142 5559 2830 11620 7104 16129 
8516 8312 3091 10453 8717 16616 17755 15615 4454 
11539 10681 8013 15544 5315 12075 8522 10906 9647 
8842 9031 2683 7485 13574 11612 4847 942 6807 
12674 17760 13670 160 10930 12321 9468 11122 1855 
14141 4320 3381 14129 17848 1 16855 17813 13806 
8154 14185 14592 2021 17521 3065 1830 3385 3460 
2408 9894 10721 11676 1572 17275 8859 15790 15887 
3835 1256 12057 2637 17817 16617 17756 4126 9041 
11118 10667 3950 6805 9300 9256 4548 13604 815 
3448 4101 7107 10572 7923 12981 6869 2197 14484 
14752 5713 2090 2844 11581 75 2750 2729 10996 
6815 16279 11664 12292 8735 17227 10289 2826 8988 
17705 4312 16374 11618 432 17653 5724 4611 5579 
13653 17111 13313 502 11916 15688 7836 17225 15572 
7032 17501 12270 626 2363 710 10023 15818 7832 
4756 14629 11195 13634 14297 1891 2707 7663 3944 
10293 1402 1231 3586 17339 14513 14380 7137 5988 
4888 9985 8303 9543 34 16007 6695 12239 10462 
8574 2908 10863 7170 14147 1773 732 2641 14682 
15224 10369 16187 9757 12363 6440 1627 16751 1051 
13113 2951 1957 9764 16287 13759 15702 17078 5629 
3525 692 5910 433 3783 12774 6184 8901 2203 
7255 5490 12702 4428 9808 5165 7448 259 9036 
6380 1138 6835 7026 4833 5111 1540 8591 10352 
633 10603 33 23 1267 3194 13511 590 5156 
13297 2668 14099 4083 12620 3229 6811 2177 13364 
1381 13857 12957 15174 10966 4459 17126 1458 12933 
7358 16937 13828 14478 22 4294 8322 8709 3439 
2271 16086 9338 11086 10527 9879 9149 1898 5739 
10310 6395 388 11755 17274 7710 1270 2977 8833 
15475 2778 15769 11583 13827 9593 14871 6047 9635 
4039 338 13220 8473 5835 3765 12680 10013 3356 
5069 4279 11172 15820 10855 12816 9408 10933 7927 
10897 15861 12898 6045 3238 16997 10309 3044 14892 
1053 9959 10753 5738 15023 14494 598 1930 6294 
15173 16451 16666 8542 16630 10384 12655 1031 4841 
2014 7070 16947 10213 8081 93 15090 14935 4518 
17587 4181 11060 353 9688 2420 16971 4861 15618 
5841 8433 4952 10850 2523 8153 15338 5304 5042 
10664 12255 14827 17439 15201 364 10234 5567 2458 
16276 6779 4710 13407 419 5174 12015 5245 9995 
7359 12263 13770 469 17638 6182 11924 284 10017 
7864 1181 17384 1336 476 5762 7209 8642 4158 
12775 6111 808 7025 620 11394 15830 12686 14731 
16288 8630 13227 15328 10044 2372 10980 14932 11158 
4916 10080 13060 4608 8865 15553 15803 17488 15435 
4407 624 5271 15633 5266 5167 8804 15151 3037 
11532 15534 9387 8712 15518 14262 4339 13522 17667 
13223 16084 7118 6654 2175 13065 12524 11523 1744 
14025 17769 8690 9817 7626 14289 8926 9905 13382 
4468 14583 2803 10643 7445 7279 954 13813 3908 
16402 9374 9551 14401 10150 7304 4802 4603 7405 
270 1309 1824 13149 11766 8896 1058 4551 592 
7346 8981 2092 9212 8161 5719 7950 13570 4376 
3059 4203 5906 12855 3275 5496 15071 16786 9165 
2478 6679 8977 5411 7350 6691 4329 2193 11073 
1655 11138 1767 7109 4797 7528 16930 1784 16701 
7946 12677 10835 889 12968 11761 13169 832 5563 
2983 14774 16113 9956 14467 5621 1210 15751 305 
14850 10535 750 10129 6499 5606 15644 3688 14613 
16285 1573 14381 3167 7964 5661 13613 11409 5190 
16314 9163 8786 9298 16852 15123 17181 2931 4405 
10532 3099 11891 5641 12435 15396 13633 12628 17402 
15707 11144 3651 17669 8583 3672 16295 11477 2966 
2035 15301 12310 10423 5858 418 4873 3818 15489 
5386 17575 2425 6270 7206 4490 14462 2781 17499 
13984 3711 14543 5447 14511 12998 5361 1938 10022 
3391 7218 17518 11953 3940 17534 1688 9567 17481 
7765 2431 16834 15649 10230 5453 464 10934 17540 
15570 12129 17545 667 5845 3859 10727 12896 5284 
9604 2473 17014 11982 10463 7188 12694 3139 10164 
7978 8230 17778 8736 1909 4430 6177 20 10416 
2827 2782 13541 17006 13780 1725 2248 16192 17424 
8787 143 1395 829 15347 4432 13821 11672 9971 
5977 242 17546 12770 4697 6588 6366 1680 1222 
99 6050 10374 835 8837 5007 14667 11694 9103 
7031 5044 970 2133 1751 13017 17451 1860 3009 
8454 13898 4671 6475 2094 3933 3290 12083 79 
17408 9029 13032 13176 10682 14866 12340 550 117 
9810 2743 16156 12110 16979 11956 16149 7220 7650 
10281 8139 2762 5303 8807 11270 14476 6944 14156 
14878 2423 7511 7973 15474 11898 11215 736 975 
8185 15930 16649 1087 13270 861 6267 14764 5486 
7157 2119 7481 86 7908 573 14956 8631 2000 
1390 14551 14885 13139 4465 3535 12179 1813 15404 
8999 16567 698 4371 13901 990 8124 373 5479 
10553 7298 11204 6323 17151 17558 16763 2648 2068 
14920 17210 6969 3814 3452 15704 6392 11339 2562 
10829 2179 3943 9479 4077 15160 6321 8313 2457 
14578 4495 16895 13888 5197 13509 16347 8797 13280 
16907 9037 11151 12 15927 6478 4711 3497 1268 
4303 10822 3883 15835 14748 8060 13206 12282 11259 
8738 10132 17727 265 17717 13174 17394 6148 4274 
2046 4071 3844 17423 14223 12474 17677 11936 6518 
1828 10529 8715 6444 12407 17226 17355 10355 13787 
16045 5222 10592 17313 11465 17316 13090 613 15362 
1356 3203 15670 1213 1545 2317 15015 8764 5179 
3049 10707 6866 8463 8450 11229 9507 3602 12582 
6552 16513 1664 878 13310 1049 15418 9110 13767 
6923 11433 7730 8097 13897 8595 11744 3103 6189 
17647 14938 16130 6724 16202 2915 8384 971 2554 
9745 7691 7307 7456 10392 13629 11947 13548 15793 
4845 13702 1558 4253 8832 10531 7435 13071 194 
357 11357 8553 9324 14806 8146 5421 10982 1764 
12293 5832 12196 13091 15717 7052 15780 2769 6391 
12791 7790 11364 4917 12212 106 3547 14398 5705 
5176 7745 11730 2253 377 14485 15802 2926 17323 
4357 12870 12857 12605 10291 9519 5290 2787 14041 
6685 727 9377 13564 14887 7088 3758 10796 13164 
2839 1888 13 17075 8782 12926 14664 11196 1761 
7635 14846 10764 4856 5485 8401 1444 10584 1803 
3304 17022 14503 5306 6429 164 9534 14900 9137 
9016 926 14278 8997 16419 3601 6990 11548 2255 
6428 7136 16576 13374 7495 4724 6852 3743 9876 
9898 17788 10486 12182 2138 16785 7593 16154 9270 
277 12201 2426 9011 8593 14851 6523 6145 9679 
4227 12704 9001 2236 4818 1660 13197 5829 3325 
10253 3773 11758 3568 9614 7469 11282 12696 12384 
585 10177 6573 9755 1325 15358 17530 11342 3573 
2222 10914 4676 11963 1433 17172 1456 655 4595 
9216 14708 15884 3437 10778 675 15794 15287 9511 
15116 1030 14924 170 3687 6480 12804 4056 17153 
1549 12793 15146 7749 14302 8707 7936 14507 14131 
17814 6602 1459 15643 6746 4605 13363 8856 11335 
15904 2510 10923 15958 16237 12859 16362 1472 3202 
6390 11582 16766 15290 7903 7784 14249 169 6344 
5280 17203 10148 13014 9286 2039 3349 1516 232 
7110 15197 10127 1633 15446 13184 13158 8850 15636 
14663 1313 2859 2635 14949 8826 9295 8785 4747 
13230 11776 2590 7577 5945 15237 12834 2968 6527 
14449 9584 2732 15263 1538 1328 15191 11385 11537 
8362 8205 12413 580 7746 8900 5440 3086 4607 
4007 15383 13986 1525 14926 1734 10075 10294 12248 
9782 3054 9202 15876 11294 12740 4537 16251 5804 
6941 9926 11689 13585 10367 10096 13095 7575 1795 
3085 15605 3095 2085 11212 8949 12336 11189 15592 
3666 13947 1956 1712 16730 15030 15166 11211 10119 
9752 17374 12468 10227 9453 2927 11742 7042 2962 
557 17340 178 4960 10145 14929 8914 13837 6986 
5907 15606 5549 14346 2444 16350 9944 7 3923 
1209 17479 17664 10460 2922 4102 5219 2319 17628 
7774 5547 11074 7979 12316 12980 17243 12538 11712 
9496 2243 15313 6400 6166 2727 1559 16497 11376 
7591 5882 15614 14441 10631 4761 10629 10287 5461 
12186 14574 9048 13037 2013 10219 15185 4061 17780 
8534 3539 12479 2583 11495 14378 9220 6948 2569 
2802 11794 9599 16871 17676 2979 16297 6022 5153 
13284 122 545 83 4628 2755 757 4325 1941 
17265 7764 16242 15384 748 11996 8116 14248 1591 
14343 786 2330 8557 14037 6802 9779 4346 1490 
6569 7905 7500 17076 7066 7850 1410 4692 14458 
5367 15308 7166 2978 10438 2400 10000 10939 87 
9515 4450 192 12934 11573 998 16977 6681 1293 
12231 8425 6532 8825 4967 2273 7694 17271 4986 
12601 13279 5389 3331 2122 13404 10722 5766 15176 
1907 12389 9590 13202 5012 6619 15026 8545 17294 
11296 5502 7381 10783 12131 16970 239 206 17753 
6620 17644 2332 15368 2578 13451 12354 2391 13183 
12322 6520 4579 3629 17254 14630 17442 2450 3694 
13794 12526 1560 688 1952 12781 6000 6404 16155 
1945 12215 6631 4265 1514 8169 16 11124 3607 
14077 10502 5812 14428 355 12132 12820 2318 17197 
3392 9833 198 1105 17470 2701 6464 12002 17219 
15678 13135 3282 5071 7356 4822 13517 17273 238 
14687 7367 10563 15810 5550 5319 1834 15537 8489 
16869 8086 1896 3135 6991 5693 13406 10635 1167 
2970 2117 1962 5785 5571 6686 3610 17335 4392 
10748 1906 14587 3249 12509 11667 13061 14438 8602 
1114 15587 9676 14007 2304 12249 1450 13860 14697 
7062 15044 5863 5848 1431 7249 17112 9678 10624 
17068 14350 16702 15655 9938 9095 600 16703 13396 
2437 14936 6376 5730 8409 15099 3347 14700 16228 
5728 1568 779 8 14691 9266 393 5241 7809 
13028 5640 12956 663 9025 5010 4941 13048 3133 
6828 13492 9065 17597 11088 1519 10999 1451 7736 
11018 16931 15787 15920 15341 467 4244 10719 1243 
10650 10606 9609 13725 731 2768 11648 5710 17305 
15546 9710 10552 11834 9159 15045 4521 2320 6621 
9 10417 1606 1695 14216 17803 734 13980 10548 
15652 4000 9347 1455 5015 17698 7527 3692 10564 
974 15706 6593 11450 13671 16823 14561 8170 15207 
7259 16294 10032 10777 14717 7257 4196 4109 13427 
2489 12315 10586 6895 1642 15334 15551 7632 7488 
10845 930 9595 3309 13009 5527 14123 8378 8538 
7535 12408 17839 558 12863 11006 2580 13823 12164 
12747 16569 14048 3755 13459 3419 14253 366 15800 
7074 153 15697 4494 17283 5407 10061 10701 10744 
3285 16924 11173 8664 9872 11809 4614 2105 5257 
4769 16420 6716 1435 2077 1434 16562 14267 14797 
5454 16077 7895 1639 16965 11842 15953 4685 3552 
1129 3799 17063 4754 775 16682 8422 3172 9586 
3576 14046 463 3106 4206 9524 5633 17122 4534 
15490 14768 11516 4057 8157 12219 17775 13434 6591 
4020 7625 13303 3201 12214 6018 182 2054 5679 
5784 17754 12581 17016 3875 4388 1147 16346 17069 
14155 1872 13547 2941 129 10314 9692 8673 3724 
10925 16956 13715 15657 7670 13600 10385 8342 2396 
4444 16410 1777 13900 9851 13437 16329 17679 17025 
14564 13805 297 4690 7862 1409 13944 2822 5833 
10393 15052 630 15700 13950 8020 12653 9311 12963 
13465 72 224 5186 17641 4915 527 2929 13408 
3594 11859 16172 2767 13949 12565 4231 16761 10858 
16623 886 13129 15034 13263 8814 13863 5253 13572 
9988 7789 13365 13924 9314 16466 3995 13959 6894 
9832 11131 16583 16457 14673 2201 6062 11914 15730 
8212 17113 5038 12560 16715 17160 12055 891 8958 
4510 685 5292 10677 6465 16570 8369 7592 12843 
1587 12563 7633 17039 6984 8861 10583 5700 16925 
4502 2693 13114 6981 440 3409 10987 8793 11257 
252 955 6241 15989 1120 10190 2699 11503 2198 
261 17104 17840 6939 14836 7097 717 5138 9553 
522 17640 2462 9189 2159 989 8208 101 1950 
6072 15737 379 3893 13682 12056 16017 14193 14334 
6202 2665 4382 17823 9480 9735 14725 10831 9430 
1225 17139 8223 15457 5181 6511 17392 17686 9385 
9868 11590 11042 15261 4820 16456 10819 16250 12669 
12289 1510 13107 10365 11014 1076 3239 5433 1975 
9195 168 14523 12802 12034 9895 6639 6431 10668 
2660 3873 10399 1443 4807 222 7955 12327 868 
8199 1915 17438 4380 11803 317 10434 927 13168 
12195 16363 3341 13939 10864 16723 12227 6704 16585 
13543 12510 15982 5363 10974 9105 1854 10745 11431 
8123 12403 11900 5419 4086 15171 2451 3640 4792 
7701 2448 5776 1647 5936 11186 9318 17280 14332 
1078 3999 4308 11961 11784 7791 4695 8921 7648 
2213 7667 3110 1503 13494 16465 673 8306 4190 
15132 14837 2227 3174 11466 17815 11636 14389 8428 
1463 14606 15907 14121 10669 6783 3123 6755 10588 
25 6097 340 2738 13152 8210 2726 4927 15561 
5310 16390 11087 7151 1880 11305 6517 4063 15946 
16289 11481 15648 13510 9153 15624 1505 15833 4680 
6496 10787 498 5686 9486 12365 2752 4431 10913 
5756 15300 17062 16929 5809 8453 8846 11890 2531 
9188 12862 1740 3992 9357 8261 11235 9949 16424 
2527 11941 17520 8352 2568 6689 3854 6963 14372 
6846 5522 9901 7196 8110 17121 11515 8257 2741 
17767 5553 13397 3595 9071 8740 1523 2240 5495 
11604 3204 4 5477 15739 1122 4583 7326 16581 
15304 346 12626 4266 16972 7807 2658 11513 11752 
1475 7270 10903 14431 3889 8625 2605 13200 9494 
2642 7486 8747 8252 4530 5551 1971 7424 9179 
6136 362 17566 9382 3224 15050 9722 16352 6531 
12078 2921 15755 6861 3100 15464 15915 17167 7154 
4745 10507 3113 3775 2885 3389 14293 9015 12166 
13838 6575 17264 17047 2424 2624 13128 5887 10581 
4955 15960 9575 2260 16067 1776 3046 2498 14426 
16023 9329 15029 15433 16133 7907 4114 14569 16963 
1735 6191 104 8603 13571 10760 1172 8361 16661 
7226 7396 17435 11232 7985 8096 12158 3984 986 
17800 1133 15245 11097 16249 13097 16846 17359 10268 
5859 3209 6723 1817 9244 5080 5017 40 13385 
13998 12095 16658 14189 16874 17543 17289 1335 14474 
8987 2185 17510 3717 15192 9125 17382 10956 983 
1002 5491 9918 11773 11089 10546 247 6240 16978 
1583 6417 11734 9225 7888 6876 12106 8621 10641 
17091 14457 12989 8918 17106 9860 13637 582 15220 
13096 1314 12030 5099 5984 7756 13029 12813 10033 
11233 6233 15080 4990 12039 15288 15809 10540 8507 
4587 11684 3862 4399 3542 8831 17646 1762 4218 
14976 9651 12165 15759 12682 1257 1377 11230 3354 
16767 11599 10084 15379 2667 10873 17505 13524 13358 
8633 16121 5653 15641 2033 13444 9528 6082 5415 
16032 11871 6980 5806 13663 529 8703 9582 15664 
11985 15870 5060 5884 5269 6818 14534 13906 9428 
3076 3079 17493 654 10484 15938 11524 13076 10328 
11093 7972 7601 7689 12651 9472 14825 14296 11312 
6953 15465 6603 13441 12377 17504 17223 8091 2387 
10591 4898 12890 12983 7547 1253 13338 9414 5857 
7860 13518 8307 11992 10170 1337 15350 13937 7072 
10663 13850 6801 7036 885 13956 6790 3695 6849 
11510 12744 16019 13934 8935 5798 2268 16698 1916 
4416 12149 15571 3988 8077 7720 5754 17512 3483 
7510 15276 17822 273 11779 367 13111 17095 15594 
8857 3946 1631 12333 6252 13175 3070 6536 531 
17593 10039 15779 10176 10775 9512 6643 3279 2548 
13145 1654 4981 9168 11236 2636 9712 14396 13854 
11365 15608 15089 10809 14250 10163 6228 8867 17058 
3793 8016 12372 4108 8789 4262 13058 15219 2415 
3004 4739 3269 3400 3242 3469 17093 5937 5076 
1153 6529 15748 2166 1528 12143 3751 728 1378 
13675 11775 12689 6193 3554 15472 13700 11206 2369 
16520 16536 1005 15854 14654 3865 4065 4059 10655 
12220 3345 563 17743 16564 427 14761 2680 8304 
1388 15217 3555 6134 3171 9602 1919 10907 2120 
193 10490 6930 12189 13496 8524 7669 13940 14039 
7560 11918 17026 3853 14695 8746 1802 2348 17056 
13537 10147 3762 17675 2496 4003 16577 108 10284 
1618 13140 12415 1156 15554 16061 7017 16479 15566 
2432 14244 7552 12465 4389 15742 3916 3948 12608 
12358 15687 1768 9192 1626 10332 356 7425 13943 
4044 13648 10054 8098 6222 4188 14591 11025 14997 
15855 13880 12690 4945 3443 3998 11804 14859 5198 
3913 1263 972 16643 9579 16897 9793 13790 6924 
2195 12054 8968 15135 15025 5698 6820 935 8936 
8975 8457 1241 263 10541 9335 14678 11039 7149 
10240 8392 13831 4908 10480 14644 16197 2080 5689 
507 14307 3020 12067 16299 4909 13300 729 10051 
16358 8045 12357 12484 10092 17454 3089 1385 6534 
2264 5513 5865 15712 12912 1319 3921 1996 11869 