# vtk DataFile Version 5.1
Generated by LIGGGHTS
ASCII
DATASET POLYDATA
POINTS 17850 float
-0.00544882 -0.0288331 0.00128658 -0.00424797 -0.0289391 0.00168357 -0.00303333 -0.0290402 0.00163782 
-0.000500297 -0.0293043 0.00159979 0.0017937 -0.0289963 0.00114428 0.00460452 -0.0286397 0.00134163 
-0.00711774 -0.0282342 -0.000186954 -0.00135896 -0.0284176 0.00208925 1.43841e-05 -0.0286697 0.00226984 
0.00107043 -0.0286724 0.00195397 0.00356424 -0.0281831 0.00176837 -0.0111718 -0.0272222 0.000645936 
-0.0101397 -0.0275185 0.000112326 -0.00839768 -0.0272816 0.000743531 -0.0063199 -0.0279896 0.000759811 
-0.00358455 -0.0279124 0.00190586 -6.55815e-05 -0.0276529 0.00275231 0.00182872 -0.0276074 0.0012484 
-0.0073325 -0.0267815 0.000714959 -0.00307505 -0.0269645 0.00243288 -0.00187901 -0.0272512 0.00250884 
-0.00115528 -0.027351 0.00130689 0.00271917 -0.0273236 0.0020415 0.00302956 -0.0272471 0.000459444 
-0.0137646 -0.0259598 0.00239276 -0.012262 -0.0260786 0.00178361 -0.0114362 -0.0261333 0.000930776 
-0.00823504 -0.0258661 -7.25152e-05 -0.00583493 -0.0267505 0.000911165 -0.00384967 -0.0268892 0.00153441 
-0.00207108 -0.0260204 0.00254518 -0.000915841 -0.0260219 0.00212711 0.00173097 -0.0264315 0.00252853 
-0.0144159 -0.0255548 0.000913811 -0.01104 -0.0252758 0.00147591 -0.00927389 -0.026587 0.000477638 
-0.00717191 -0.0249865 -1.00796e-05 -0.00518005 -0.0258462 0.000557869 0.000359148 -0.0255394 0.00195174 
0.00356405 -0.0251323 0.00168063 0.0113825 -0.0259249 0.000621663 -0.0154647 -0.0249107 0.00074009 
-0.0144128 -0.0240131 0.00130573 -0.0133862 -0.0249955 0.00133675 -0.0121859 -0.024994 0.00138003 
-0.0114798 -0.0244335 0.00209517 -0.00987397 -0.0251065 0.00103633 -0.00613749 -0.025436 0.00119177 
-0.00399108 -0.0254439 0.00171556 -0.0023099 -0.024985 0.00225719 -0.000624466 -0.0248935 0.00211293 
0.000982307 -0.0246295 0.00176753 0.00162715 -0.0252325 0.000749366 0.0150366 -0.0246481 0.000886376 
-0.0167571 -0.0239957 0.00176296 -0.0155007 -0.0234246 0.00198233 -0.0127755 -0.0238483 0.00151888 
-0.00946052 -0.0240398 0.00110742 -0.00819563 -0.0244768 0.00151635 -0.00707177 -0.0246827 0.00215035 
-0.00326689 -0.024336 0.00235511 -0.00139139 -0.0242009 0.00260617 0.000274782 -0.023704 0.00221063 
0.0055609 -0.024053 0.00029542 -0.016594 -0.0223841 0.00214535 -0.0147862 -0.0228446 0.00101412 
-0.0118961 -0.0232655 0.002038 -0.0106256 -0.0227793 0.00122888 -0.00868894 -0.0229721 0.00108576 
-0.00645653 -0.0243667 0.000642311 -0.00573873 -0.0238728 0.0020885 -0.00401542 -0.0233488 0.00217957 
-0.00249127 -0.0234211 0.0024284 -0.000710014 -0.0234352 0.00156807 0.00206137 -0.0239271 0.00186362 
0.00313036 -0.023299 0.00153766 0.00441315 -0.0234712 0.00149154 -0.0188429 -0.0222928 0.00258689 
-0.0177218 -0.0222815 0.00219891 -0.0163555 -0.0214773 0.0026733 -0.0152782 -0.0220226 0.00238766 
-0.0137876 -0.0217136 0.00197783 -0.012745 -0.0223803 0.00138056 -0.00903733 -0.0222217 0.00221644 
-0.00635135 -0.0224292 0.00209755 -0.00357632 -0.0216165 0.0019119 0.00108241 -0.0225551 0.00178565 
0.00616027 -0.0227715 0.00125962 0.00733237 -0.0233836 0.00101074 0.00923218 -0.0224937 0.00129356 
0.010434 -0.0230289 0.00225759 -0.0201435 -0.0213073 0.00193402 -0.018841 -0.0212122 0.00188844 
-0.0125296 -0.0214748 0.00241038 -0.0107119 -0.021868 0.00213781 -0.00721121 -0.02159 0.00202929 
-0.00474183 -0.0215098 0.00150078 -0.00108823 -0.0217948 0.00254392 -0.000115965 -0.0218301 0.00145283 
0.00222322 -0.0222421 0.00180982 0.00493489 -0.0213769 -0.000151099 0.00806278 -0.0224403 0.000502732 
0.0170928 -0.0211742 0.00110539 0.0190023 -0.0222288 0.000315135 -0.0178415 -0.0211326 0.00269066 
-0.0167677 -0.0205165 0.0018434 -0.0135116 -0.0205807 0.00188338 -0.0123109 -0.0204769 0.00276718 
-0.0113519 -0.0208898 0.00239802 -0.00956124 -0.0211815 0.00218009 -0.00827722 -0.0215639 0.00198879 
-0.00645679 -0.0213878 0.00298468 -0.00225075 -0.0216978 0.00262968 0.000604004 -0.0205561 0.00146582 
0.00156436 -0.0211679 0.00193256 0.00301069 -0.0210378 0.00171349 0.00587961 -0.0209922 0.00102331 
0.00676823 -0.0220311 0.000716206 0.00923263 -0.0210607 0.000460588 0.0153757 -0.0208559 0.000525177 
0.0206166 -0.0208702 0.00071633 -0.0211385 -0.0193958 0.00134894 -0.0199397 -0.0199681 0.00188036 
-0.0169253 -0.0193192 0.00134128 -0.0152536 -0.0199659 0.00225096 -0.0131077 -0.019724 0.00252804 
-0.0108251 -0.0199057 0.00271702 -0.00937366 -0.0200882 0.00281474 -0.00777993 -0.0206836 0.00232422 
-0.00316293 -0.0205564 0.00178071 -0.00144797 -0.0207505 0.00305124 0.00402338 -0.0205568 0.00134957 
0.01021 -0.0202849 0.000528887 0.011915 -0.0210821 0.000774017 0.0129231 -0.0200092 0.000835893 
0.0136518 -0.020898 0.000710579 0.0150003 -0.0198959 2.17519e-05 0.0211284 -0.0198381 0.000538381 
-0.0221798 -0.0189638 0.00146449 -0.0196915 -0.0188237 0.00205262 -0.0184879 -0.0198237 0.00188231 
-0.0144183 -0.0189452 0.00163876 -0.013985 -0.0192471 0.0029345 -0.0118792 -0.0196882 0.00222996 
-0.00387072 -0.0200467 0.00286874 -0.00330205 -0.0190117 0.00197704 -0.0022187 -0.0196991 0.00310556 
-0.00032296 -0.0199586 0.00289933 0.00132784 -0.0197424 0.00178736 0.00240315 -0.0200829 0.00196843 
0.00422767 -0.0194323 0.00241188 0.00545945 -0.0198378 0.00039512 0.00713599 -0.0199772 0.00107389 
0.00839558 -0.0192193 0.000602014 0.0180014 -0.0195119 0.000421148 -0.0209976 -0.0183487 0.00186737 
-0.0186398 -0.0183734 0.00212401 -0.0171552 -0.0182902 0.00232088 -0.0159972 -0.0185972 0.00149685 
-0.0148263 -0.0179379 0.00125479 -0.0125138 -0.0186223 0.00200619 -0.0100566 -0.019117 0.00275432 
-0.00935335 -0.0181622 0.00153512 -0.00644153 -0.0187005 0.00259158 -0.0040239 -0.0187957 0.00298969 
-0.00108674 -0.0190233 0.00324306 0.00255475 -0.0190289 0.00257025 0.00448743 -0.0184091 0.00180005 
0.0064302 -0.018933 0.00122005 0.00725033 -0.0188262 0.000489735 0.0109062 -0.0188024 0.00144524 
0.0118814 -0.0194023 0.00109904 0.0135413 -0.0188041 0.00118975 0.014797 -0.0182448 0.00153099 
0.0168335 -0.0180739 0.00134631 0.0209252 -0.0185535 0.000771704 0.022818 -0.0184867 0.001006 
-0.0244732 -0.0162442 0.000942482 -0.0216791 -0.0169294 0.00169115 -0.0207191 -0.0170437 0.00220548 
-0.019389 -0.0175665 0.00178225 -0.0182667 -0.0173401 0.000592947 -0.0114008 -0.0185102 0.0022164 
-0.0101949 -0.0179829 0.00284049 -0.00712069 -0.0171481 0.00228281 -0.00538789 -0.0183297 0.00288361 
-0.00363128 -0.0174477 0.00208147 0.000608645 -0.0183995 0.00308809 0.00144814 -0.0187723 0.00232136 
0.00334766 -0.0176373 0.00242588 0.0070727 -0.0173841 0.00120912 0.00780773 -0.0182351 0.00155523 
0.010743 -0.0178574 0.000412215 0.013219 -0.0175904 0.00100279 0.023244 -0.0176509 0.000404598 
-0.0250425 -0.0151342 0.000606956 -0.0225243 -0.0157996 0.00151433 -0.0213563 -0.0158106 0.000957414 
-0.0202802 -0.0160437 0.00199585 -0.0193991 -0.0162976 0.00136846 -0.0171691 -0.0172906 0.00184113 
-0.0158024 -0.0172582 0.00189403 -0.0140693 -0.0174094 0.00208896 -0.0114839 -0.0172856 0.00203465 
-0.0103106 -0.0170477 0.0019922 -0.00821581 -0.0168641 0.00243489 -0.00624973 -0.0169621 0.00293485 
-0.00491963 -0.0171939 0.0028271 -0.00245604 -0.0176122 0.00289448 0.000948352 -0.0171744 0.00249388 
0.00563116 -0.0170095 0.00218836 0.00661006 -0.0165028 0.00167809 0.00893256 -0.0170795 -1.24982e-05 
0.00973363 -0.0171869 0.00123952 0.01184 -0.0173686 0.00134601 0.0145988 -0.0171195 0.000902694 
0.0165342 -0.0165343 0.000776681 0.0181314 -0.0173261 0.00151296 0.0207004 -0.017603 0.00138658 
0.0224915 -0.01688 0.00121538 -0.0257751 -0.0139903 5.14462e-05 -0.0171845 -0.0162377 0.00119326 
-0.0166239 -0.0153084 0.000612532 -0.0133058 -0.0166938 0.0014582 -0.00966027 -0.0158927 0.00200024 
-0.00692941 -0.0161433 0.001575 -0.00549829 -0.0162473 0.00212252 -0.00165071 -0.0165541 0.00305147 
-0.000549595 -0.0167474 0.00264129 0.00215168 -0.0171106 0.00267918 0.007559 -0.0161015 0.000260539 
0.0099807 -0.0162378 0.00177865 0.0109014 -0.0157427 0.00149538 0.0118871 -0.0153722 0.00130499 
0.0138912 -0.0161796 0.00155875 0.0150085 -0.0159919 0.00136518 0.0174277 -0.0161615 0.0015149 
0.0197334 -0.0166868 0.000973995 0.0220139 -0.016055 0.000302533 0.0241224 -0.0166802 0.00122668 
-0.0244793 -0.0145907 -0.000136936 -0.0212442 -0.0145095 -0.000135847 -0.0189736 -0.0145787 0.00190368 
-0.018212 -0.0144632 0.00106376 -0.0121928 -0.015907 0.00151502 -0.0105213 -0.0149244 0.00227161 
-0.00866247 -0.0154526 0.00233677 -0.00477556 -0.015629 0.0028693 -0.00358012 -0.0158528 0.00248251 
-0.00229471 -0.0160237 0.00202773 -0.000898699 -0.0155437 0.0029916 0.000315508 -0.0160113 0.00291578 
0.00278255 -0.0160552 0.00242056 0.00425559 -0.0154396 0.000935283 0.00572572 -0.0153779 0.0017207 
0.00841641 -0.0154355 0.000226447 0.0130327 -0.0154842 0.00153331 0.0160462 -0.0154427 0.00118545 
0.0186974 -0.0162979 0.00114085 0.0201463 -0.0156184 0.00076097 0.0218388 -0.0149303 -0.000130884 
0.0232653 -0.0158575 0.000817238 -0.0211258 -0.0131749 0.00139871 -0.019142 -0.0133092 0.00111766 
-0.0169656 -0.0142495 0.00125261 -0.0147179 -0.0146359 0.00167615 -0.0144053 -0.016027 0.00199485 
-0.0134683 -0.0153193 0.0016231 -0.00939727 -0.0143256 0.0020941 -0.00709563 -0.0152532 0.00284952 
-0.00594267 -0.0152081 0.00241966 -0.00283355 -0.0148466 0.00268419 -0.00194846 -0.0149309 0.00339821 
0.000233508 -0.0143673 0.00287418 0.00129407 -0.0152581 0.00269111 0.00338735 -0.0149935 0.00180931 
0.0064323 -0.014186 0.000920522 0.00920291 -0.0150319 0.00134128 0.0112781 -0.0144154 0.00138399 
0.0141624 -0.0149935 0.0014195 0.0152914 -0.0144365 0.00159414 0.0176314 -0.0151548 0.00205056 
0.0233147 -0.0147528 -0.000105804 -0.0215164 -0.0122958 0.000799564 -0.0178067 -0.0130234 0.00102328 
-0.0123987 -0.0148093 0.00160194 -0.0100735 -0.0139151 0.00310318 -0.00872795 -0.013142 0.00232732 
-0.00457723 -0.0142579 0.00254964 -0.00360353 -0.0140868 0.00303951 -0.00194296 -0.0135269 0.00250995 
0.00465592 -0.0143637 0.00153283 0.00667391 -0.0131015 0.00149351 0.00772559 -0.0139167 0.00125971 
[...]
POINT_DATA 17850
FIELD FieldData 6
id 1 17850 int
1782 7527 13409 11181 13777 2005 5407 1092 17635 
11176 8544 10032 1731 4151 12765 16240 1590 12773 
5242 1265 17707 16295 10169 11584 15878 13087 11822 
3755 2827 3011 12481 4811 1942 10727 11789 11747 
409 16103 7978 9777 12530 10030 1666 9982 14957 
4209 13874 1843 2939 5146 173 6018 4752 16682 
9331 2097 6223 9109 1057 2054 4479 17629 5924 
5276 15852 2759 11069 16856 14974 12147 110 5350 
11256 12542 1352 7885 4278 3597 3137 970 13022 
5484 14865 884 10380 6215 6687 12029 14358 5673 
14744 14357 10838 4175 2474 6724 16556 6456 12559 
5675 16872 4390 3338 17614 1551 6971 2096 12458 
15583 16760 6794 13077 153 14046 3463 14113 2407 
1756 17159 4754 5875 8794 2934 5578 16044 6460 
10777 7001 4550 12896 2000 17282 17156 17499 347 
11084 10285 749 15584 10622 9553 17610 11543 5355 
3658 2087 1968 17486 15953 3940 8142 15093 11821 
2988 14987 1659 5648 12329 6487 11654 15928 10376 
11674 14539 4792 3714 11460 7589 6323 6085 13316 
9087 1741 2446 10174 8989 3811 9187 17722 12045 
14918 10876 11299 7354 4020 3154 12665 2941 11971 
7955 12180 2742 10418 13211 15246 5855 10619 7751 
15846 3841 13598 7503 12973 7788 47 7772 16095 
13365 2522 15092 7363 10549 17253 2920 5396 14006 
8478 7535 15484 9851 3744 13792 3813 13778 9102 
11820 10600 6995 6094 145 11336 4109 12023 16902 
816 9810 7922 13950 11962 8787 12669 6001 15908 
14717 12799 16223 4154 4807 16737 7399 4795 12947 
3152 11116 14950 707 16298 7898 5140 15325 16357 
111 9073 15238 2571 8558 16749 12555 3566 3484 
16442 11695 5437 12345 8377 2535 4432 17104 2488 
13142 6854 9099 13143 16157 12942 6900 2704 7879 
4877 9578 606 14912 11572 4465 6396 6321 17686 
6781 10837 16567 17579 14088 1500 6144 6393 5170 
7450 7789 2665 7181 1420 16436 839 5322 6533 
7733 7911 3718 4965 16907 5222 17829 1315 12611 
14920 7031 7427 6769 15445 5574 10207 11507 11696 
3239 12946 14757 12327 7599 3194 16849 13787 12226 
5272 16611 1980 4362 7124 3780 3999 13788 10610 
8060 5372 8585 807 8546 13218 3012 937 4098 
15704 4365 4267 7555 17379 7592 11816 5633 14304 
17353 16388 2700 6039 16342 1391 10411 14882 12880 
13640 1670 12454 13419 14436 4445 16960 11434 2968 
10802 17021 6639 16595 1766 9499 12841 2262 16933 
13353 6789 595 5676 2613 17352 14016 7616 7332 
4183 11725 13334 11525 4873 6435 11888 12056 12035 
2967 14032 16367 12282 3796 5612 14614 16057 11765 
7908 86 10933 17165 9684 3032 17218 10995 4881 
856 13377 10546 16258 14778 165 9661 5784 9882 
12771 10441 13557 14278 5503 12491 6530 16035 14173 
9574 1667 17399 6296 9724 15994 2683 4233 17400 
2224 5446 6641 14366 10737 16268 2780 9303 7139 
9353 4671 11270 3304 3933 16097 1122 10488 13713 
14971 13463 4018 3955 15715 1104 13684 11612 10264 
12182 15980 1814 14964 3290 3155 4711 760 8313 
13337 772 1401 5383 2757 3962 15667 4253 5526 
823 17151 11936 10987 2787 9809 2554 13695 9408 
432 1898 1281 7480 721 9012 11738 11489 14107 
10592 16558 9045 4449 4648 6153 17298 2691 9309 
10497 8777 17075 10896 15160 5179 16371 14183 15497 
4880 14022 10387 5544 15377 3462 1071 7319 4357 
2091 12817 15615 7309 15132 13179 15040 8859 1680 
7368 14393 3973 17608 5110 15915 13408 11339 9647 
13893 6840 6300 7314 17555 11011 11185 10918 15559 
7301 12297 5936 2428 10924 2626 11283 493 14326 
13141 16914 7804 1297 11389 17835 8717 9252 4715 
7003 673 1226 3108 6714 17185 4402 6767 17121 
13174 4604 6266 10351 5997 2729 15355 15591 2050 
1627 6118 12196 17601 4596 11732 16726 12244 4849 
3828 1849 13958 647 11910 13589 13591 1136 7444 
9688 6966 5463 3278 14532 160 8005 10273 584 
7394 11730 5946 4383 17437 373 17848 16723 5391 
9778 11858 17811 755 11988 15465 11957 13677 17623 
17103 14507 6941 11452 6069 2568 7799 16542 16904 
2949 12195 6772 5329 3614 17752 5963 16430 15081 
10229 12047 290 8492 10334 14664 10486 9148 9137 
8782 942 6728 38 8312 13926 1340 7469 11195 
14223 5117 814 1320 9200 12386 14388 883 3655 
6755 2758 11776 9613 12791 11184 17658 16508 11703 
12605 646 4525 12833 13641 657 1917 4956 8500 
9379 4112 1421 7892 2260 11664 12824 3277 5038 
5937 13400 15013 12040 9069 9944 10674 926 14615 
14926 15882 15052 15523 4128 10577 5424 8476 4587 
10736 16818 14699 15307 10743 17332 15433 3617 8306 
1303 5713 9218 2962 4607 12161 12980 498 8015 
158 17721 9400 7889 11587 13553 14855 10784 12541 
10965 7217 948 3368 12114 3110 13095 8826 17609 
11194 16117 15504 4917 15418 2298 5738 12638 17170 
17412 6656 3599 10812 16196 12050 14185 5998 12772 
8354 1465 7261 338 10394 9806 2329 11629 8935 
878 13310 7712 2708 11673 12626 14986 6363 13049 
8850 16119 17319 5180 3348 12537 14425 3656 176 
7474 15722 4617 11482 14879 14162 11439 4093 2273 
8120 3922 2771 13242 7532 11206 5316 15624 12275 
2862 7083 15561 9593 17792 14847 12648 3854 16019 
5929 15636 2680 15154 14203 6846 1468 12899 1494 
16566 16143 14455 17807 11469 4111 11565 16308 16683 
17734 3736 6222 5933 1992 1292 10212 3486 9625 
10249 522 10148 6285 15594 3050 17780 13456 6786 
13611 2039 4415 12516 4975 17339 14250 5831 8368 
9635 14448 6874 14583 3019 4088 9369 14060 1503 
4266 3899 3594 15827 12412 13509 690 16559 4577 
16020 7072 1426 3534 2676 14437 17664 8237 11325 
16465 1072 17087 286 3370 4791 7952 16630 8474 
4475 15149 5147 10973 5559 1306 4368 8573 8469 
12350 15295 16071 2219 136 1723 663 8582 14983 
15721 3378 4122 5270 15173 8856 5357 2778 15940 
546 8534 9246 9061 7800 890 1419 9605 17340 
7193 3652 11510 3257 11535 3448 3573 12966 16581 
6238 15274 6287 9538 13850 10039 5066 3380 17099 
5072 16743 6263 12102 5813 17625 8228 9675 16160 
10922 5882 3558 4916 16820 4842 5750 10627 13536 
12021 1239 1124 10066 16415 10846 8119 8668 8397 
2991 9446 3946 11403 225 14558 1319 1983 1684 
9078 8293 9668 12086 12722 7161 12935 12708 5709 
12261 12104 2220 2996 10056 6274 198 15017 4014 
14014 11180 8269 2562 10375 635 2645 4890 16476 
10542 8703 6865 5698 2576 14254 12189 5304 7073 
15436 17325 14161 2356 15784 10810 16064 11832 16441 
16069 6510 4720 15248 13716 11729 15335 2420 1029 
10768 9897 13175 7584 14098 1827 7464 17109 16275 
17466 4290 6832 10504 10419 12778 12647 13724 2504 
2561 5689 7390 8405 1052 10611 12884 16277 3297 
12808 17064 11416 10512 13834 11227 4628 11756 14070 
16523 15366 5596 12167 16519 15180 4535 3956 15875 
4518 12118 14361 16141 39 17696 11059 14410 5109 
4994 7560 14029 14237 1145 4188 17234 5286 15463 
7576 16099 11960 13776 7729 16282 9162 16943 6086 
7290 4865 1193 3660 15208 16641 13057 14652 6216 
5338 15905 11331 11737 13021 779 9883 16992 9878 
16578 3207 12690 17259 3703 12283 1883 11090 16713 
17506 11170 16931 11138 1600 11003 14889 12734 17242 
16711 4039 2450 4110 4265 8720 4585 17213 16113 
12701 6193 16589 4570 12930 12911 8734 8485 9465 
12952 16659 3088 11448 12392 12324 15006 17026 7957 
9599 11679 2318 10037 17691 13690 13237 14679 4100 
16335 17188 17485 12948 10566 7851 9082 5125 1579 
15831 15851 12850 11931 16714 17050 2014 8086 1644 
1841 4396 11361 3275 221 14318 3901 8421 7248 
15871 8183 9488 16774 3598 8602 16961 15476 16610 
5999 10175 12220 13663 12933 11920 11596 11255 2792 
11881 5637 15127 16928 14575 16315 9234 6785 11837 
9457 17107 3421 10972 11368 523 13882 11157 12562 
16922 8993 11323 13216 6791 4778 9608 13215 11668 
14944 2080 7367 10601 17790 15648 16692 3080 3057 
9018 11486 12211 5606 806 1682 17517 8601 13185 
14240 6171 2610 8905 16836 16107 12100 9241 8163 
9670 3267 13236 7067 636 9392 3210 5635 10204 
5812 10780 1608 16074 11381 485 1709 7902 9255 
9561 2593 14961 10366 16554 16764 6648 1432 10892 
4251 2117 10630 1835 2533 15214 1199 5513 16303 
16039 4132 9356 17597 10181 263 12077 1781 76 
15074 3654 4686 5900 2187 6311 16780 16947 11637 
10928 8994 282 54 16246 1183 3132 5095 6864 
15832 13288 7517 14533 11349 3509 14939 10803 9161 
14535 10999 17528 15662 125 16216 567 17639 8741 
14612 8041 5217 8506 1512 848 5873 3130 1243 
16703 11834 6985 8078 5130 17526 16247 15920 4946 
398 6067 2989 9653 12374 352 7176 17166 11119 
16510 680 14170 4789 1453 11770 17415 4386 6355 
12135 1918 9710 17143 4349 17181 10397 5577 17300 
11687 2194 12641 6760 9705 14555 8351 4831 14640 
5205 11609 16433 3075 5381 7550 11990 130 14741 
3220 9657 17388 17605 17348 689 5022 16185 14135 
16990 13492 5976 7760 909 15120 3141 2628 2933 
12335 4662 271 3070 11627 9243 2555 17257 4771 
8323 2722 8626 3496 11866 6996 6621 3605 14684 
1743 1643 6713 1568 9434 1585 6123 6736 11284 
764 9905 6404 700 4663 10804 5614 4058 7731 
4022 6165 14723 15587 5797 799 889 6516 2816 
16685 4701 4498 14693 5456 788 10675 9264 8056 
10585 11155 4147 16136 6254 600 12348 8545 9042 
666 15796 12347 8356 6614 14582 12457 9490 3172 
7342 4893 78 15543 1173 16821 4273 15778 14312 
8014 6895 8051 4027 2101 11570 10386 7183 8075 
16742 5374 2837 8902 16434 127 7034 14101 10511 
11252 2608 322 3449 9236 15477 10200 733 17648 
2550 16940 5274 4288 11249 6741 6873 5048 1056 
13275 5725 4184 5238 12788 10100 865 142 15515 
12410 8495 13352 5492 13139 10001 16781 3870 15632 
16428 6021 14074 2241 3544 15891 7014 2379 12276 
3369 4812 2618 1007 5895 6881 1923 6149 7989 
15203 17251 8028 2735 9448 14153 8363 5599 14079 
16575 12010 9193 13393 10827 7146 1008 5005 16172 
16771 4160 17193 15061 11808 10969 12355 3696 12923 
13539 5413 15538 2791 13533 15551 7243 8109 12461 
2374 4989 2418 7257 65 2572 15966 5161 5002 
8039 17368 14856 16944 2316 10815 16066 4404 2936 
123 4505 316 14956 4649 10718 6351 15727 9440 
9330 12587 1339 11273 2781 3308 14637 5558 1187 
4735 14745 9076 15231 9251 9485 13262 11940 14177 
7222 7947 8854 8170 3713 17122 6795 7765 12110 
12228 13270 11717 11375 1288 1462 5386 5986 10428 
12310 17802 1939 13472 13577 5542 304 16431 3300 
7438 14868 11516 5351 3102 9960 17668 7145 12130 
11831 8853 16267 13559 13883 17426 8844 8212 13324 
14461 11429 13960 6129 14897 8199 14696 6056 12245 
5230 16400 6367 10168 17286 3672 13528 3686 17148 
3588 9875 13661 3929 7988 10365 2259 9091 481 
2384 5851 2310 2355 1455 2425 13308 13844 16328 
11379 17069 12940 17755 12447 8219 8296 9229 3149 
11851 5301 10828 2656 6234 2638 11972 13821 12663 
7206 1222 7999 16950 14661 1746 7681 14873 15150 
10957 4025 7235 11976 1082 13207 12747 4358 13863 
15424 965 7893 190 7582 11281 12915 1101 15462 
1887 12521 1441 13968 8683 8798 15512 1739 379 
9518 5965 5275 5834 13330 4115 4270 5847 15930 
6386 1356 10583 10773 10526 2915 16311 2861 873 
5757 11672 11431 11891 7336 13980 17545 12637 3219 
4470 15590 7670 14218 4600 10454 2762 5776 7348 
7836 497 16473 2198 15700 174 8364 14955 6535 
11904 11096 8461 7724 15670 8526 5508 10673 11877 
6320 5609 8131 4588 7520 8797 5243 4760 7190 
933 4668 5433 621 6704 2948 2119 15243 2738 
9567 418 14838 6700 5749 2046 4820 8814 2068 
14209 16199 7903 3065 16274 7958 12378 16484 17708 
8208 8139 10173 5443 15279 6489 9315 16243 16594 
16396 15899 15345 12235 16389 16149 8185 11423 17401 
9110 10346 4595 904 15171 10 1708 13109 8093 
15997 2253 13753 10621 4629 11923 11951 14635 1018 
13155 13443 15560 6164 14667 4422 8118 13900 3620 
14224 16188 12517 8960 13267 16124 6604 4190 16588 
10529 17558 9467 11196 6805 1175 7220 1129 11872 
5292 744 9860 9005 11016 13925 10990 5278 13402 
7048 1830 168 14236 4338 17182 3640 1571 5925 
13806 3616 10190 13225 886 6226 14406 14636 13660 
6469 14589 3919 6264 13574 5645 17113 13005 1287 
14780 11286 817 3517 3816 7169 8097 4540 14623 
11190 8666 3583 5037 1326 1036 16616 8105 9034 
3514 13519 9216 12179 16958 6148 13129 14634 791 
1279 2383 17508 17484 17077 5137 13392 15728 4086 
13890 1048 9534 16259 8503 12460 16050 4878 12037 
5660 16955 16154 14431 11093 6980 2463 143 1089 
9101 6689 1444 1897 8221 16901 17057 2059 8502 
6213 16213 10824 971 1995 6480 17105 3467 8223 
6107 1472 8855 234 3985 17710 8522 13182 1640 
4185 12352 5306 9634 6012 10341 12284 9687 5317 
14942 15572 16485 1428 12025 4847 5065 557 17091 
16457 16791 8729 5950 6498 6824 5810 312 16409 
14922 11053 9133 40 15888 5864 17173 6150 13356 
840 11468 416 3743 15369 17248 7553 5626 2171 
10093 16129 13231 6685 6291 797 5310 11223 12314 
16941 7221 2188 6374 3121 462 5105 982 13326 
13626 13498 8023 6571 1931 15586 5919 2992 6603 
14457 2632 14592 14834 5970 7777 5504 3100 1947 
2498 5114 3361 1034 3716 1722 2451 11863 13 
14120 8846 6705 2444 9324 732 900 4339 8284 
2336 7038 2879 6723 15739 9709 16576 9074 15195 
13298 8527 5690 13913 13338 13728 11289 11901 5977 
6345 17591 6136 1948 2362 11803 16763 5415 1054 
11338 16360 12472 8406 16390 10002 8460 1182 13930 
6961 7326 8845 5967 8407 11896 15083 11369 11583 
5945 15885 11918 14464 11635 13076 17410 9051 2255 
12321 8520 7375 5638 1982 15101 9346 5388 9577 
17820 11024 8448 9636 24 7790 12711 12057 2433 
5165 5256 2205 5378 9731 9139 7745 10307 14781 
9494 7834 2750 956 10388 9650 15637 10049 8205 
4770 4384 4148 10132 9893 12729 9785 3082 15816 
16086 2590 5033 14479 14906 2557 3342 6511 3896 
16168 13544 6063 3587 12735 1135 4397 9244 9696 
10725 17603 5145 8785 13637 8110 16202 15738 15263 
1112 4818 1719 14380 3146 13026 2502 10118 14215 
12898 3127 16264 17124 10553 14130 4181 14766 9737 
16998 8560 11337 5321 17498 6884 9344 13461 1328 
11145 10088 2375 809 6577 12953 5027 1106 3765 
10543 3846 3227 15299 17309 1665 3178 15608 14733 
3292 5759 10384 17189 6057 14272 5822 7680 880 
696 13964 4706 14429 5096 1774 17827 2819 7154 
12468 14116 7746 9275 17006 14376 5804 14758 11884 
2817 17808 17076 4481 3472 7669 3403 4416 7890 
7069 16462 8217 10525 9037 15647 17801 10082 10440 
15336 12120 8279 7066 9219 5400 73 3235 6091 
1301 16040 11885 11754 16276 6317 12779 14314 3565 
15383 14966 8903 15313 9377 4751 10460 1159 7675 
16666 14969 4799 14949 3949 2581 4995 2619 2341 
11520 15217 17444 15843 4892 9394 13466 15446 3920 
13877 10733 3332 7233 11950 9869 9568 9140 2252 
12152 14093 7874 1431 7740 7355 17374 10520 10121 
4250 6016 4328 8825 15443 2616 604 7002 15407 
5704 3633 15338 10508 17650 1622 4761 13537 2766 
5953 9020 13038 13737 17720 3923 13826 10996 13214 
15527 12155 8104 6938 1402 11913 8804 11487 5438 
12967 8913 12813 843 8694 11209 9719 6095 3327 
7666 960 2882 1154 17093 15453 12749 10243 13331 
10373 16115 16261 13940 17296 16171 13630 8433 3111 
15408 4517 1930 10147 10218 10770 2435 1046 14068 
4003 8173 11608 4731 16971 9118 12291 15553 17371 
12372 14731 3495 10051 4049 4332 4957 4123 14875 
9498 14499 11124 7043 10776 16637 1476 14917 8393 
1369 1972 13764 2203 17061 11935 4336 3815 14506 
13486 6597 7205 16440 9248 4324 9562 13052 17413 
7185 10986 5090 6468 9075 13799 2095 1654 13163 
5473 1221 13531 1090 7638 7304 6175 1710 17395 
36 8622 5576 16796 15166 8149 9699 13065 14349 
11307 509 7775 2840 3232 13442 1439 12084 8731 
8103 4719 15911 2125 1757 5360 8289 3377 16913 
1146 16398 3268 17561 8436 7896 15606 9591 12607 
11467 7993 11012 6041 8022 13460 5631 9697 2560 
231 9618 13765 17714 8429 2120 1536 7641 13549 
11829 10076 3533 14434 2591 12614 14706 10578 9517 
4343 10409 14773 15479 6259 15123 15278 12811 8431 
8881 2804 10112 10983 16437 9669 2577 10758 14570 
8550 11044 88 12598 4703 4242 17554 5323 6909 
12405 11895 9826 15954 12494 13601 9207 4903 3934 
1629 9362 14151 14584 3806 13053 8143 1815 11844 
9877 3482 11359 6654 7277 10276 10279 4052 15137 
239 9956 7147 17270 14747 7597 15714 538 9621 
7935 10705 13343 14381 11352 729 6211 10011 15716 
3521 9557 11691 649 6335 3613 11013 11120 1878 
9934 2585 3556 16653 3090 3173 7840 305 16946 
8806 17199 8669 397 14438 14861 2071 15900 11021 
11334 5575 17724 7521 4276 10552 12887 139 11158 
8863 8636 7559 6490 5241 3823 9596 10350 16621 
8054 1976 12589 10180 17537 7050 9589 10935 9544 
7844 15157 1686 355 15922 3729 17046 3135 8144 
16206 17547 9741 3894 5384 3530 17055 9450 8132 
7207 9262 1621 12298 8355 17550 13530 14195 8968 
8189 8823 246 8255 5309 16284 9265 2566 442 
3252 15048 11759 11243 16401 7468 15862 5989 7897 
7263 12552 6133 17452 10786 16314 15775 2880 4846 
10734 2137 5273 7812 5619 1269 9706 16863 8350 
10523 11641 348 4334 7064 8271 917 8784 5820 
11377 10129 10192 2764 7005 5862 10505 4727 8637 
1417 8733 5207 15971 9683 6426 555 14424 5411 
4319 8566 8499 4866 16985 10321 4567 10444 1949 
10989 12436 5661 3165 8786 10333 12864 15471 6338 
5763 6554 14700 8692 13514 8076 6493 2126 2453 
3217 6828 8608 3515 4387 7607 400 10128 4928 
3274 5777 7835 5640 6520 1385 2701 7736 534 
7343 5718 16501 17782 11471 13562 16227 4142 4182 
769 10491 882 4733 4603 2372 7329 13404 223 
14105 12013 5277 15612 4713 11869 1011 1906 7325 
1727 11341 16859 70 866 17772 2506 6036 9354 
6130 1690 8586 14611 12676 11360 14496 6893 11800 
601 459 5377 15167 15039 6288 1648 14914 5622 
1543 4937 5826 2015 17492 1663 12731 17376 14807 
15060 16381 15178 4853 17357 9550 3183 8439 17071 
10888 14281 9824 9840 11685 8638 3406 4331 13971 
10233 14420 6272 9987 16934 13278 2775 16134 625 
15505 1751 13176 426 15919 2657 1903 14689 7558 
4429 11167 5746 13965 1194 3651 17562 12832 6479 
16860 15011 1728 15047 15206 2027 12622 6747 3907 
13459 15049 15072 6406 17212 11450 3416 11749 5555 
17414 3291 9415 510 6304 3596 8536 3748 16782 
13465 17828 6457 9573 13019 16687 1607 2201 3436 
6726 1093 3630 631 7316 1395 1397 9084 14106 
17448 12264 1552 10807 81 12688 8615 6804 7656 
1224 9941 386 15062 9217 17377 1909 1217 10271 
13383 14797 3375 14811 8931 4974 5257 980 5534 
2549 14551 16522 15711 6735 17297 8772 14112 3829 
5092 10456 975 14639 4366 8032 3756 12011 10006 
15469 10142 6328 13018 8181 16065 6664 2022 7095 
16076 16775 12170 9155 8166 608 17804 16843 4079 
10464 16150 5026 14713 5036 15177 5858 9105 4146 
10586 7204 7446 12107 16801 10269 5449 13024 7299 
8995 6586 15005 14327 7546 4515 11975 1541 16042 
10423 14604 7887 13067 1736 12073 8000 13039 14529 
13924 17805 5331 9077 14155 4487 2852 3177 2055 
11720 12376 11100 16697 6451 9940 15077 17210 5891 
15430 12624 8588 5566 10857 2133 17137 6283 7588 
2924 6667 10458 14011 7932 16410 1141 11849 3480 
11042 15654 466 736 14316 14877 7216 10416 8358 
11480 10319 12532 10829 5546 14082 1435 1390 12070 
9655 16365 15884 7625 12628 4430 5055 13416 5470 
16545 8285 16629 8624 2511 14725 3379 10258 12383 
10230 6706 15902 13210 9385 8654 14382 1928 15945 
17450 17051 13895 17295 7429 13259 2462 1808 1611 
5397 15000 11726 11518 14703 12828 4038 5183 6836 
16570 15707 4677 6437 12033 9462 1704 7021 15824 
16325 8282 1785 12574 13119 821 11315 14546 6915 
8664 4534 9198 3208 6877 16200 12886 9350 16405 
11529 7341 1076 5486 10594 7481 9195 16255 14954 
1481 10813 6125 13699 17423 6244 8982 1870 6186 
10431 7213 12770 16951 9603 11603 13650 17826 15189 
151 2189 2788 6588 17433 8885 6477 1811 13529 
11497 1075 992 13418 14573 7197 16114 10816 14004 
12476 9314 15480 2293 1268 8079 17656 11445 16104 
10513 14933 3819 14133 15389 13848 12227 7894 222 
1043 3310 8917 3768 2109 4127 16000 3163 11568 
14928 3844 15073 1025 10463 1380 7180 14749 3352 
17337 6172 702 6541 14800 3497 5480 13504 6357 
11218 10500 5320 14150 7872 11346 13566 13742 12046 
226 17338 1780 10209 9616 11410 13859 6105 106 
3106 12455 7602 14578 15021 6815 5772 17634 3488 
5783 13678 12568 6097 7701 3810 11413 13715 16968 
15669 5980 101 17447 10398 15224 15706 17138 4838 
16320 2280 11527 9038 15555 17023 5736 812 12242 
9189 12463 13031 8821 1572 472 12311 17717 6894 
15569 6934 1343 11753 10203 14397 8456 1491 1940 
11823 1997 15976 11660 4670 10690 11147 15242 245 
8829 17013 10798 8715 4073 6788 236 9692 2130 
14202 13682 3623 5139 14072 11948 537 11035 9921 
7000 17222 12821 4625 8381 12802 4940 7302 8663 
17280 4372 9429 1783 5540 13286 7158 9815 4582 
8248 7377 11847 1244 3593 11589 8934 963 15786 
1055 12870 13020 17211 1641 968 10642 11566 6841 
8728 11456 13311 9837 13852 9281 5426 9370 12239 
16694 13543 15184 7157 2641 1528 117 710 15962 
3001 12279 15856 17619 7581 5701 9913 11956 15337 
5390 9407 3917 16130 17194 17142 6267 10291 1796 
16900 13097 12497 2838 17164 5358 9563 9802 3320 
9976 7516 13767 13604 2011 5128 8651 8581 17249 