# vtk DataFile Version 5.1
Generated by LIGGGHTS
ASCII
DATASET POLYDATA
POINTS 17850 float
-0.00380546 -0.0288883 0.00327075 -0.00290124 -0.0291439 0.0039569 -0.00189377 -0.0288318 0.00358373 
-0.000864652 -0.0293109 0.00355752 -0.000329575 -0.029429 0.0048599 0.00303868 -0.0291969 0.00293759 
0.00362269 -0.0280717 0.00367272 0.00469163 -0.0288839 0.00243661 0.00610377 -0.0286865 0.00232176 
-0.00731784 -0.0282759 0.00242459 -0.00637862 -0.0285789 0.00310584 -0.00548626 -0.0279268 0.00357579 
-0.00300584 -0.0280095 0.00420799 -0.000969059 -0.0281784 0.00385071 5.53355e-05 -0.0288859 0.00302867 
0.00152172 -0.0288888 0.00373531 0.00681118 -0.0276805 0.00151894 0.00770297 -0.0282544 0.00202044 
-0.00877085 -0.0279853 0.00134724 -0.00844438 -0.0266019 0.00281361 -0.00432661 -0.0277916 0.00315776 
-0.00315162 -0.0276226 0.00282066 0.000108645 -0.0276909 0.00455625 0.00104847 -0.027624 0.00283221 
0.00249632 -0.0277355 0.00358088 0.00406603 -0.0268659 0.00279401 0.00564965 -0.0277421 0.00273066 
0.00747607 -0.0268364 0.00102754 0.00936054 -0.0277419 0.000772493 0.010421 -0.0274827 0.00123057 
-0.012991 -0.0263195 0.00123305 -0.0109951 -0.0269506 0.00214023 -0.00751287 -0.0268185 0.0018728 
-0.00543196 -0.0267514 0.00330253 -0.00222859 -0.0269849 0.00350607 -0.00110003 -0.0270486 0.00370386 
-9.1197e-05 -0.0275328 0.00334364 0.00194895 -0.0268702 0.00401466 0.00258957 -0.0267256 0.00283384 
0.00529646 -0.0266783 0.00290834 0.00642789 -0.0268792 0.00224988 0.00859887 -0.0262984 0.000795071 
-0.0134935 -0.0254366 0.00207255 -0.0115529 -0.026058 0.00222201 -0.00981732 -0.026479 0.00249175 
-0.0101244 -0.0259422 0.00151863 -0.00686503 -0.0262128 0.00376265 -0.00443201 -0.0262244 0.0035709 
-0.00336833 -0.0263504 0.00324273 -0.00146565 -0.0259285 0.00394681 -0.00025049 -0.0263134 0.0040575 
0.000890246 -0.0264046 0.00388941 0.00466585 -0.0257954 0.00235263 0.00635935 -0.0256433 0.0025045 
0.00738904 -0.0264325 0.00260577 -0.0145783 -0.024903 0.00171149 -0.0106129 -0.0254234 0.00229032 
-0.00794004 -0.0254899 0.00218725 -0.00715092 -0.024804 0.00336488 -0.00342158 -0.0251727 0.00350394 
-0.00241043 -0.0257361 0.00321539 0.00175793 -0.0256075 0.00351293 0.00338447 -0.0256766 0.00296588 
0.00460245 -0.0247158 0.00274746 0.00720674 -0.0248172 0.00168781 0.00871927 -0.0250182 0.00105431 
0.0100365 -0.0256264 0.000316488 -0.016529 -0.0242274 0.00208345 -0.0139406 -0.0240949 0.00227008 
-0.0128481 -0.024289 0.00201915 -0.0115814 -0.0247429 0.00194474 -0.0106517 -0.0238843 0.0021051 
-0.00947347 -0.0247146 0.0023412 -0.00607812 -0.0253564 0.00366644 -0.00172829 -0.0249173 0.00292888 
-0.000727108 -0.025372 0.00461531 0.000646567 -0.0250985 0.00320407 0.00243289 -0.0248269 0.0022746 
0.00354672 -0.0246513 0.00269224 0.00566955 -0.0242827 0.00246499 0.0104289 -0.0245608 0.000599449 
0.0115065 -0.0241383 0.000712762 -0.0168572 -0.024076 0.00327753 -0.0152839 -0.0236317 0.00196481 
-0.0131405 -0.0236683 0.00306746 -0.012046 -0.0239541 0.00273697 -0.00959011 -0.0234522 0.0017603 
-0.00775917 -0.0233686 0.0022334 -0.00656129 -0.0238321 0.00308458 -0.00510701 -0.0253165 0.00293144 
-0.0025807 -0.0242973 0.00364646 -0.00158221 -0.0240291 0.00416991 -0.00043278 -0.02438 0.00406038 
0.00382211 -0.0235264 0.00274814 0.00700655 -0.0233659 0.00239204 0.00996452 -0.0238754 0.00185942 
0.0126119 -0.0244502 0.00163496 -0.0181834 -0.0229254 0.00305887 -0.017266 -0.0234201 0.00237577 
-0.0143089 -0.0230514 0.00264991 -0.0121264 -0.0232079 0.0017643 -0.010929 -0.0230476 0.00279522 
-0.00993934 -0.0223713 0.00271402 -0.00872051 -0.0225798 0.00148096 -0.00547623 -0.0235789 0.00298861 
-0.00402802 -0.0245837 0.00261647 -0.000827645 -0.0233298 0.00359365 0.000697135 -0.0239156 0.00320556 
0.0020733 -0.0230428 0.00275331 0.00480188 -0.0227873 0.00321139 0.00578313 -0.0229658 0.00277768 
0.00680574 -0.0219833 0.0025358 0.00797985 -0.0238486 0.000913697 0.00947233 -0.0229318 0.00148121 
0.0109307 -0.0231723 0.00126489 0.0123404 -0.0232681 0.00168901 0.01509 -0.0252495 0.000629885 
-0.0190732 -0.022177 0.00253724 -0.0163027 -0.022952 0.00175446 -0.0151173 -0.0224312 0.00201967 
-0.0127394 -0.0225592 0.0029939 -0.0117095 -0.0223262 0.00229251 -0.0107917 -0.0218772 0.00158583 
-0.00641065 -0.0226767 0.00250776 -0.00327917 -0.0233263 0.00260154 -0.00191371 -0.0231783 0.00326748 
0.00794151 -0.0217139 0.00294495 0.0103701 -0.0225892 0.00210899 0.010974 -0.0218703 0.00135059 
0.0135066 -0.0229684 0.00168218 -0.0207556 -0.0207443 0.00262423 -0.0174293 -0.0221748 0.00217544 
-0.0166203 -0.0220898 0.00337187 -0.013634 -0.0216407 0.00193633 -0.012093 -0.0219463 0.00102047 
-0.0118539 -0.0216832 0.00349854 -0.0096695 -0.0216783 0.00149735 -0.00684121 -0.0214508 0.00226999 
-0.0054442 -0.0220856 0.00275777 -0.0046742 -0.0232799 0.00214994 0.000413987 -0.0215109 0.00306899 
0.00200489 -0.0220057 0.00329089 0.00381608 -0.0223773 0.00343132 0.00480883 -0.0215112 0.00322474 
0.00689585 -0.0207824 0.00344793 0.00902077 -0.0213107 0.0018198 0.0126547 -0.0220626 0.00111789 
0.0150928 -0.0216018 0.000364183 -0.0196786 -0.0212088 0.00282277 -0.0184755 -0.0220381 0.00123221 
-0.0165284 -0.0209077 0.00151372 -0.0153784 -0.0209843 0.00220023 -0.0144852 -0.0206827 0.00295355 
-0.0134534 -0.020272 0.00183867 -0.012702 -0.0211321 0.00238018 -0.0121645 -0.0202565 0.00200193 
-0.011619 -0.0212439 0.00240495 -0.0104158 -0.0209644 0.00247829 -0.00487548 -0.0210961 0.00212423 
-0.00331788 -0.0213472 0.0018177 -0.00253946 -0.0222517 0.00158822 -0.00196314 -0.0215937 0.00255649 
-0.000748136 -0.0211256 0.00271041 0.00310895 -0.0207745 0.00320256 0.00440396 -0.0204322 0.00324349 
0.00622283 -0.0208029 0.00257277 0.0084881 -0.0198859 0.0025688 0.00967249 -0.020641 0.00263962 
0.0109052 -0.0208088 0.00222216 -0.0210579 -0.019526 0.00214265 -0.0199982 -0.019985 0.00209511 
-0.0190051 -0.0203716 0.0026308 -0.0144894 -0.0194761 0.00191878 -0.0103787 -0.0196111 0.00195865 
-0.0094178 -0.0205809 0.00197416 -0.00758144 -0.0206529 0.00305977 -0.00572503 -0.0205141 0.00300522 
-0.00147982 -0.0204247 0.00232434 -0.00103695 -0.0200506 0.00326988 3.30092e-05 -0.0203543 0.00259987 
0.00193677 -0.0208819 0.00296112 0.00441871 -0.0195447 0.00234733 0.00604451 -0.0195859 0.00306955 
0.00738034 -0.0196803 0.00261006 0.00971197 -0.0196056 0.00217314 0.0122366 -0.0203698 0.00246003 
0.0154882 -0.0211891 0.00138665 -0.0220293 -0.0193347 0.00266742 -0.0204522 -0.0186967 0.00212719 
-0.0191851 -0.0191778 0.00235421 -0.0176989 -0.0209701 0.00235152 -0.0170044 -0.0194541 0.00236001 
-0.0158683 -0.01958 0.0022429 -0.0128161 -0.0193616 0.00194709 -0.0117904 -0.0189968 0.00229259 
-0.00826783 -0.0199965 0.00211785 -0.00678859 -0.0195615 0.00276554 -0.00521821 -0.0200108 0.00190796 
-0.00409887 -0.0202137 0.00182068 -0.00290542 -0.0199512 0.00274379 -0.000465954 -0.0192963 0.00186934 
0.000896911 -0.0195289 0.00323917 0.00222548 -0.0195015 0.00279232 0.00331473 -0.0197222 0.00261615 
0.0051843 -0.0188692 0.00288804 0.00903976 -0.0187295 0.00212219 0.0098438 -0.0188487 0.00303525 
0.0136179 -0.0202065 0.00173497 0.0173168 -0.0201552 0.00220502 -0.022693 -0.0183504 0.00221784 
-0.0215288 -0.018208 0.00246591 -0.0182087 -0.0186962 0.00186338 -0.0153174 -0.0178871 0.00185085 
-0.0137568 -0.018655 0.00189792 -0.0122956 -0.0177409 0.00141364 -0.0108773 -0.0185777 0.00168649 
-0.00829304 -0.0187342 0.00189447 -0.00585079 -0.01908 0.00150541 -0.00333547 -0.01896 0.0019432 
-0.00220798 -0.0193627 0.00181624 0.00135235 -0.018479 0.00267355 0.0029571 -0.0186514 0.00281994 
0.00404883 -0.018204 0.00243623 0.00765409 -0.0185882 0.00239207 0.0111057 -0.0181277 0.00194698 
0.011591 -0.0193295 0.00205934 -0.0202748 -0.017632 0.0019496 -0.0194448 -0.0180789 0.0029437 
-0.0168797 -0.0175022 0.00188268 -0.0163328 -0.0187401 0.00174263 -0.0141355 -0.0176572 0.00228471 
-0.0130047 -0.0179622 0.00252072 -0.0111051 -0.0177346 0.00257194 -0.0104621 -0.0174682 0.00125674 
-0.0045211 -0.0181124 0.00226883 -0.00183531 -0.0178207 0.00150134 -0.000607865 -0.0182329 0.00233027 
0.0028118 -0.0174397 0.00304186 0.005059 -0.0177137 0.00277314 0.00650085 -0.0183807 0.00233178 
0.00794638 -0.0174391 0.00196021 0.0092176 -0.017727 0.00236025 0.0118785 -0.0167724 0.00115519 
0.0129112 -0.018102 0.00168257 0.0139086 -0.0168987 0.00259729 0.016004 -0.016374 0.00129199 
-0.0233708 -0.017185 0.00257905 -0.0223472 -0.0172911 0.00317975 -0.0216942 -0.0170648 0.00226406 
-0.0195784 -0.016336 0.00216832 -0.018129 -0.0174684 0.00167287 -0.0156659 -0.0159212 0.00183535 
-0.0145022 -0.01654 0.00207523 -0.0133913 -0.0169023 0.00164414 -0.012136 -0.0167649 0.00195403 
-0.00922213 -0.0177926 0.00188756 -0.00799312 -0.0174898 0.00271208 -0.00675683 -0.0176298 0.00254817 
-0.00584419 -0.0170053 0.00273763 -0.00341368 -0.0176713 0.00250301 -0.000155026 -0.0172384 0.00236696 
0.00133167 -0.0172615 0.00266844 0.00470691 -0.0164938 0.00249799 0.00585304 -0.0167847 0.00244066 
0.00690035 -0.017046 0.00204847 0.00852469 -0.0159469 0.00100162 -0.0236161 -0.0160305 0.00214663 
-0.0225476 -0.0159877 0.00200208 -0.0213763 -0.0159088 0.00256031 -0.0180326 -0.0163538 0.00242323 
-0.0130386 -0.0158486 0.00202883 -0.0114325 -0.0158191 0.00175229 -0.0104286 -0.0164122 0.000861082 
-0.00895616 -0.0166104 0.00181606 -0.0041762 -0.0161709 0.00219313 -0.00153724 -0.0166165 0.00237685 
0.00236866 -0.0164808 0.00355217 0.00347079 -0.0164121 0.00306297 0.00658696 -0.0156567 0.00275638 
0.00737434 -0.0157245 0.00178489 0.00977358 -0.0158302 0.000746781 0.0114591 -0.0155247 0.000214576 
0.0125602 -0.0159012 0.00227584 0.0141255 -0.0148433 0.00118854 -0.0246192 -0.0157042 0.00205346 
-0.0218975 -0.0150964 0.00202401 -0.018911 -0.015283 0.00234748 -0.0151243 -0.0152694 0.0025439 
-0.0139875 -0.0157034 0.00137571 -0.0109817 -0.014782 0.00157753 -0.00994023 -0.015152 0.0010273 
-0.00866418 -0.0154787 0.000994863 -0.00650739 -0.0152899 0.00199602 -0.00544066 -0.0158948 0.00187153 
-0.00341159 -0.0150905 0.00155744 -0.00120669 -0.0154812 0.00223858 0.000361904 -0.0156875 0.00238024 
[...]
POINT_DATA 17850
FIELD FieldData 6
id 1 17850 int
9987 426 16295 7885 6762 5276 8737 7183 15060 
15543 11328 733 4184 9777 9840 7771 15093 132 
500 15891 13516 15477 17707 15796 8026 16447 12788 
17481 2489 14313 8941 5265 6288 7743 2098 10001 
7351 17648 15679 1276 735 15167 5492 12147 12765 
12573 1532 2931 16910 386 2650 9597 2406 7723 
8538 5202 10732 785 2545 5774 4672 1329 14813 
9941 2007 15492 15616 666 4993 10041 1648 1000 
10744 6130 15136 9572 1397 12481 12566 14265 15932 
5697 12758 1056 5622 16240 4811 3492 2074 8280 
1227 15903 10534 15282 13470 3713 12663 2201 2954 
7254 5407 13785 2018 285 16556 1601 11789 16860 
2836 6006 15727 1461 12310 5161 4228 15570 17545 
6001 13971 15039 11249 17629 11818 8495 5895 7759 
15966 15011 2781 10586 17310 3479 6083 2022 11654 
17245 3471 4474 15016 12609 6735 7656 8966 9135 
12180 17759 16400 17253 11281 16025 3375 8109 13270 
5682 6479 11379 2837 10183 9054 3658 6215 12052 
10954 14158 7947 11246 13577 16965 5969 12766 3866 
9740 5558 16339 9504 2513 173 6804 544 11873 
3696 358 11606 4491 15102 9217 6328 7189 17425 
13039 12332 16801 16431 6726 7095 14392 4690 10718 
3438 7699 1004 15881 10428 17299 15298 6367 12226 
17402 5272 3884 8882 11382 17805 8788 15583 6487 
12832 10840 16522 4780 16878 14113 5143 5134 10423 
418 6365 15430 2262 11298 16950 8488 7751 5449 
16142 16737 17668 7239 8316 13539 995 6829 11100 
8854 13225 707 12886 8616 15770 12246 15691 10815 
3436 5092 2759 15928 5519 9448 4520 147 14982 
11427 9003 7796 16159 13146 16620 17490 15321 2851 
10532 1659 14153 9091 6018 3940 2618 3092 7859 
11336 1939 14950 6700 721 16837 16258 8285 527 
13867 4588 6050 11450 14551 10164 5725 11973 7399 
5351 17828 12587 10499 11353 3524 8131 12517 3301 
17051 14778 14882 2511 9073 7503 14046 15853 3177 
10682 3042 6094 7106 10549 16365 14150 11327 8055 
10455 15846 13462 16436 11256 16749 8142 6706 7222 
606 12947 12245 2123 5757 4544 11619 7932 11116 
6906 15495 12669 12160 5505 8631 11904 13465 7316 
7588 6351 7363 2720 7555 8496 4362 11065 13161 
11906 12178 2024 2229 16157 4270 3962 15835 10969 
2762 153 8683 2159 4465 1756 17028 4716 3350 
5222 117 6488 6125 2383 4560 9748 9372 12881 
8793 16933 4405 13895 14757 5546 11572 15953 5599 
5053 12009 3714 2988 12402 17198 10924 6836 11888 
6321 6689 7856 12190 6992 9297 16170 14469 13625 
11366 6244 17471 10773 16095 6995 7145 16379 12070 
14404 6105 15980 1430 143 9563 11784 6781 14209 
14933 1122 15888 16346 17476 6669 8982 8546 4253 
15908 14956 2000 11695 8199 6323 16042 4079 497 
13859 4070 15052 8005 10995 8729 8313 7124 16243 
13286 15994 4583 9038 5881 15963 1408 11476 671 
10546 286 17755 8377 13419 5508 17139 6405 1082 
15884 11315 10355 1268 3933 6237 17768 5834 7158 
10990 14224 4548 3228 4767 940 10637 8502 6264 
6965 9420 10987 3065 17151 168 12665 11917 2574 
647 15615 8783 4595 9160 3511 9933 15512 15497 
584 4823 3844 8635 11016 1401 10099 11778 2711 
12235 7048 7995 12282 9195 15029 640 2119 4792 
6714 17412 11803 1647 4665 932 8855 1854 5179 
3155 7419 7476 12826 8522 13713 10731 15530 1025 
11660 16649 13893 13767 10458 9309 5713 4445 3816 
10173 7984 2729 1281 14964 4880 14223 8928 9724 
14589 12056 9771 9867 7088 6610 12568 6213 883 
10232 9613 16130 14942 17727 5317 10264 4127 17075 
16907 14016 17817 11725 13641 11037 9353 13544 5875 
3602 12035 14022 10387 3973 9587 2302 15728 5306 
1080 537 14388 1829 4475 11745 6979 11957 7220 
11758 4432 10896 10228 14532 8701 16129 10265 10290 
17508 5609 772 1297 7326 4102 14879 5977 12244 
13310 12161 14479 14986 13510 13683 106 6941 9149 
14794 13923 11777 160 11338 15882 5444 15464 17423 
10488 1627 16367 16017 5390 10104 8795 2665 7789 
522 12097 4423 4014 2562 11184 3467 15586 14481 
17039 15559 16154 16035 557 13020 5936 14926 4339 
14457 13049 10704 4644 2602 905 856 7784 5864 
6155 3235 17677 7633 10394 17222 2901 4525 929 
14906 5671 1605 4402 13076 2968 7036 4913 13148 
3278 12723 838 16526 15856 10821 8577 9281 6150 
5963 13494 4799 3922 10132 17309 13242 1055 444 
10679 5988 14431 3616 15043 6420 15437 4553 14162 
12373 11319 9795 6179 14698 4018 11325 16906 3378 
14699 8774 11703 10375 5256 9037 232 13569 6536 
432 12870 6966 6728 15040 11390 13653 13679 5180 
17459 7903 11862 7710 7289 17773 5798 10448 16040 
6045 11194 7890 3227 5738 942 15171 9731 12006 
17103 5299 10584 15091 6723 4681 8476 4576 2815 
3381 7466 3257 16666 14215 2451 1652 12057 8474 
7603 3644 17170 9139 9216 5293 926 9892 11093 
17512 910 17058 10966 5998 17721 15241 17634 5810 
8743 14847 2991 17437 14751 14060 5929 2102 11776 
9778 16117 6332 14590 2708 7434 5440 2444 4111 
6711 1177 9256 15812 12648 17827 2652 7171 3368 
3361 13356 4131 5937 3170 13175 17480 7159 15648 
5559 17609 2362 7029 16746 6911 16021 11635 3666 
16119 9377 15664 8390 11730 11164 2260 10096 3949 
12412 2045 17124 15738 5415 9737 6656 6603 696 
6078 13311 17487 9873 3636 14969 5691 6091 2680 
9227 1311 5750 14284 15514 10664 8534 16566 6705 
11918 12306 7561 6872 17449 3887 12368 2922 15180 
11195 5114 15721 14354 10510 15722 11939 7344 13637 
7686 4482 6317 8875 9275 10179 6811 5165 11583 
3505 9061 17623 4933 6884 10235 4841 10812 10577 
1580 13369 1123 24 247 1742 15589 8617 12711 
11998 2085 12308 15640 4729 8340 17006 9441 15263 
5754 5570 6865 1907 7233 7375 1774 1593 11629 
16183 14558 16817 13363 15154 3540 9136 7943 13456 
4368 122 10977 9688 11143 12682 12774 996 11510 
11153 4199 10212 12548 17625 9201 5554 1936 12008 
5886 11217 2771 16462 10384 9682 12343 9565 2171 
9305 2963 12962 15666 1734 13297 3440 5120 7002 
11345 16507 4602 2273 12118 3899 13095 11535 4416 
7608 17587 4036 293 10553 4017 3178 1719 16304 
17349 14449 15446 15116 14378 12248 15290 15408 10136 
17495 3159 3633 15781 15692 4720 11673 17339 17340 
4951 16857 17319 15508 15916 10272 13120 15548 1348 
7232 1387 15149 11885 13972 11863 11226 3050 5354 
5316 16004 14654 16406 14115 3923 8433 9599 7680 
1377 12473 2828 2864 13538 10770 17743 10254 6572 
5033 14486 2420 12297 17243 12472 15012 14934 3192 
3427 12732 6820 3026 6203 5339 8153 11459 1977 
14554 8269 7360 17035 17688 13644 17780 2341 12479 
11921 9719 10326 1318 13764 11209 9175 8397 17664 
5178 11615 1926 12922 2845 12487 15306 10781 16524 
9862 9272 1600 5872 10782 15336 3804 9386 16565 
13745 7066 9515 3327 9446 14904 3709 3025 5882 
16276 4572 15934 3247 4426 6238 6917 3520 13085 
12032 1723 3202 8668 8703 2203 10213 15313 11928 
458 10841 951 14488 15614 15083 4531 15645 8339 
16161 4012 4731 17059 4204 6696 16725 12811 17590 
16643 1514 3927 2258 4092 10973 5360 14652 1362 
15351 2369 12090 3272 16016 15176 13766 3652 12372 
13063 8314 729 15894 14875 13885 2748 12398 17831 
9697 15759 7155 14586 13647 9152 7764 17126 2884 
3553 4709 13251 6381 9498 17256 16663 15784 1628 
11756 13550 6827 10449 3988 1984 3794 3779 11611 
7108 6790 10240 14439 7381 5030 14591 17511 17627 
2502 3073 6644 17537 7251 2746 5688 757 16153 
591 5009 17018 15554 15807 13247 11312 16614 11969 
4944 5506 16027 790 8465 11059 10426 10659 9374 
12944 3120 1946 4046 3730 3970 8881 5844 16080 
4719 5459 10892 12064 17324 11810 12592 9966 9918 
171 11737 355 8392 16519 1319 11844 13053 11655 
17724 658 13719 17141 12128 6765 2895 11524 8274 
7518 4743 15166 7149 14262 12072 12067 1309 15209 
875 3631 9732 2071 3806 15190 2761 636 9877 
14732 9112 1835 10575 6952 16345 8431 1638 15443 
7762 12589 16433 7207 13187 13714 14678 15401 17818 
2753 3584 17041 9147 2399 6925 2676 17272 1559 
15164 5926 578 5596 1579 2566 6259 365 8289 
10191 5938 4298 2263 6212 5812 6140 15621 1509 
8464 17371 16242 7128 16303 11796 7844 6721 12002 
14246 15157 10182 622 3697 10623 14362 11895 11407 
7346 11442 6274 3613 999 5153 352 4386 6426 
4703 2183 1900 11018 305 5586 11002 150 12342 
15516 15763 10469 17242 4500 3621 12389 16281 16607 
11017 1167 3482 2714 12501 10238 9438 12088 8276 
2610 11158 1521 11610 17107 7812 9238 11712 10719 
794 6173 13613 6768 2196 5034 5312 6117 11679 
11203 14861 1976 12562 14788 4521 11170 2847 1696 
11648 8852 10780 12943 10252 15937 14205 12687 6211 
4984 17079 8347 3961 11119 2187 8499 11001 3210 
9460 16819 11243 2012 5169 2804 6067 8350 266 
14086 11349 8111 12436 9621 6985 6490 17046 1918 
3173 7711 12324 10650 17528 4866 15862 8601 11841 
3454 4727 6458 3741 6554 17143 14536 9683 1621 
6493 15048 16209 610 12730 17716 5247 12374 3989 
7935 10409 8122 130 17550 9447 6509 15214 10601 
15476 6748 13618 2126 806 13781 12298 4251 9657 
5635 2277 3823 2081 1754 10705 5619 6254 7840 
11471 2106 15922 11347 7225 7808 848 12616 11813 
11486 1304 10397 4733 11359 16865 1173 1942 4278 
6557 8902 1590 15919 7527 1251 1424 11584 12773 
12347 8544 2005 2113 11570 1543 605 4752 17635 
9040 1728 12632 11525 3841 13876 10386 16821 17282 
15062 17390 11421 11084 17809 14199 10302 6272 8356 
10867 6372 5675 734 13257 14112 17839 1782 7450 
4027 17357 5146 17071 5405 14913 4704 14345 10028 
2775 13018 17286 4881 7765 5048 11562 2786 8213 
2965 1352 3891 7063 17131 16368 126 11749 1141 
142 4873 12228 3457 12202 13410 12504 2484 3926 
14565 9330 8689 3344 4429 5961 4534 13980 1551 
16066 14529 12940 2936 14661 9122 2031 17297 16546 
15538 1667 7243 5274 2097 9490 2474 14384 8766 
3011 12280 17626 3600 9443 8363 11821 9573 10916 
14360 10285 2488 6248 1202 14316 10876 10233 5008 
16782 12869 2328 17541 4559 12061 10464 12916 15207 
11972 7146 3596 11252 15203 11069 10622 10556 6448 
12482 8809 11004 15400 16518 10418 1725 14006 12633 
1552 3150 14650 9553 1751 480 14012 415 7698 
12559 1190 11831 11751 13472 15096 5569 16629 8706 
8194 10838 12688 6304 14420 1695 2101 9232 16662 
14819 3978 9352 14084 2920 2199 3048 7216 11113 
13022 10410 7199 7134 166 5924 11600 12545 5341 
14604 14490 14173 13488 17318 6745 8484 12622 5605 
17295 9660 7978 10442 14539 15005 9960 1732 14055 
8583 1455 16330 12713 559 10149 9482 5005 11126 
3869 10200 13139 10090 1968 11940 1470 2057 15580 
4753 17396 9924 13720 14869 8698 810 5455 8721 
1187 8624 5648 9485 12896 13262 13910 2055 11213 
9649 12360 14597 17049 7822 11553 5423 15238 11529 
65 14543 13941 6843 7546 11301 14596 12204 17669 
518 1489 13050 7116 11425 10807 5574 4115 5386 
884 17486 11851 2852 1688 3756 9759 2744 13482 
1708 8443 16545 16118 5838 14498 13674 14811 3686 
7862 4989 1435 14696 7949 12590 7210 14419 5036 
156 10190 6085 9064 17579 1766 15423 11207 17571 
15985 7218 13330 8695 3102 5437 11726 12521 10230 
11720 11460 9130 15576 5749 3032 2774 7203 15910 
3764 16405 4661 14897 15990 1225 12355 1699 11388 
13721 1617 17803 17573 13129 8364 12618 6880 8318 
1555 15268 7599 13959 2572 7955 3194 955 9440 
16457 3304 14578 8118 5037 14550 7007 15105 7250 
15073 17025 8212 8797 4649 12345 11329 3463 7975 
16311 12101 2638 236 2475 2500 2838 6815 16199 
11169 10919 15373 2849 14955 8960 4365 7121 10501 
6056 14274 2914 15706 17280 15021 14636 3497 15897 
11874 13350 5253 15747 13901 992 2287 4643 2656 
10209 7348 145 4410 12014 821 6530 2861 1814 
12455 14107 3001 3357 8152 16456 3780 17531 11527 
4053 8155 3726 3226 6976 13291 17601 1071 14231 
16588 8715 17811 16968 7908 12340 904 4325 12199 
12179 10353 4711 5358 16914 3753 1326 5946 1391 
13702 3812 17292 8250 17152 17806 6275 17400 15462 
17826 5660 13280 1073 4267 3706 421 710 493 
11215 7221 10784 8747 14618 17022 17031 17848 608 
8082 11971 9809 11669 17185 1915 797 9101 3583 
5638 585 17104 3620 3488 16193 8580 9405 10068 
1830 9607 16723 7319 17320 17194 16050 8916 11364 
16763 17725 11074 9963 7173 1528 10263 13926 17532 
7480 1937 7799 12972 17007 12735 8845 13678 11481 
14116 3617 13 11953 4023 10497 9626 17083 472 
1063 7038 2879 12050 2208 6580 6772 4303 1230 
15470 17389 13072 8872 17267 9634 10249 9625 6869 
10229 16202 17683 10918 8663 13097 6547 1898 6501 
12042 16802 5997 460 13141 12093 12696 3283 13963 
13392 11278 4963 4086 17332 14963 10004 15885 11890 
12182 6511 12085 3236 6506 12497 10093 16146 5129 
13553 1036 2975 14504 7790 15081 9806 2461 11901 
346 2179 7861 6560 1494 8532 989 5065 7157 
7650 13511 14507 15962 8406 2336 7889 8456 1248 
16941 7612 12780 6517 14990 1106 16477 15433 2590 
9016 8782 3783 17091 16900 6980 16032 158 8312 
12201 7804 12452 987 15352 12528 5419 8717 7196 
8407 14093 15019 13763 878 9085 1303 17678 17078 
15192 13755 1472 7797 16360 14708 16196 2479 17563 
4833 3867 15084 1320 7377 16082 15337 5967 9675 
6285 4284 2236 16086 914 646 1475 17800 1299 
11605 14418 6233 498 2750 1229 8850 6882 16444 
6198 16542 9700 17057 15780 7071 7154 3121 3765 
11287 13607 1125 1468 11699 16362 11963 15350 11378 
11884 8015 14508 8593 15561 10581 14895 9709 3028 
8404 12393 9696 11403 3594 15688 16874 3878 2515 
8315 3082 9944 16867 10467 15475 14402 133 5548 
8302 5177 5590 320 6071 9913 73 3919 8613 
3472 10865 11060 1888 1086 8848 3738 8326 732 
2887 16683 9717 15287 7052 8427 16445 6551 6609 
16182 1465 12114 6682 10443 8856 4250 13326 1665 
10759 11734 13624 9894 8091 276 1328 3736 7240 
15960 2800 12480 8104 10713 14816 5701 5704 11880 
13322 16751 8935 6196 12171 11430 16555 5734 14494 
10775 1864 8168 7474 3854 4051 14663 2584 1620 
11599 9124 15307 9027 15571 17465 17225 14380 11082 
9408 4888 16392 5491 3550 10357 14391 4453 12386 
1604 14908 9252 17666 15594 6846 14203 14066 1820 
16203 7409 6265 5945 12980 11498 9512 9757 7693 
10234 15527 8500 903 2252 17742 6972 14517 4791 
10332 8869 10843 7172 16483 17689 7899 4990 4756 
9052 13461 14786 10944 4932 5690 4995 5013 14095 
10312 16630 7669 5357 13509 747 12213 3292 12970 
13850 2206 8627 15861 3500 14142 3019 11651 1128 
8473 13166 11754 7355 13173 5827 7069 546 13441 
10348 272 14029 10247 10733 2422 683 14855 14021 
3435 6883 15804 13985 8667 8947 7746 6098 13824 
13423 8605 14455 13611 14250 7012 4815 8215 3342 
2370 12666 17089 13195 28 2911 9650 14542 13011 
12976 8739 16997 4398 10508 6252 7305 6786 4689 
10525 7192 15217 11003 12792 326 7547 1186 13675 
448 7643 6046 1622 2646 6953 13693 14290 2414 
4447 1856 1757 8368 4742 7275 8361 13956 7193 
17118 14268 12422 13875 5058 1930 8084 14092 13232 
17650 4259 9474 11710 7982 16020 10025 17830 15748 
5806 14311 11352 454 15046 9635 7717 17384 1591 
8116 8857 3370 9373 12021 11180 16796 12291 11791 
6654 12076 16503 17061 12705 10996 17580 3474 16437 
2319 6193 16349 17158 8042 11933 12638 5090 4994 
5324 17439 7981 885 2072 1654 795 14656 5669 
8888 786 4532 9416 9953 15472 12569 12283 1616 
8393 4290 17097 8653 4834 9009 13477 2530 12651 
14889 13826 3495 17554 12132 9140 13567 9367 4930 
14538 13664 17568 11189 16091 8424 13064 10337 231 
15006 1145 15025 15535 4097 7793 9579 9098 16479 
11376 3184 11419 4914 9996 3366 3731 5631 7510 
1121 7065 11323 288 8746 6121 8554 15281 10490 
16535 13496 3464 13635 5109 14930 1031 8095 14702 
11420 15931 7920 13774 1603 6988 12309 2619 14308 
17466 13007 17696 2821 2125 9186 2466 13355 16531 
14929 14459 6909 3680 9206 16903 5263 12847 4718 
9606 3090 7851 9792 512 5502 3763 3365 5766 
13663 11887 15249 15978 16432 4188 9600 10217 16579 
12598 7521 13279 4678 1858 16341 12382 6679 17254 
492 1207 13382 4408 14731 15240 14339 8083 14467 
16107 11557 12701 7067 14939 1634 3267 4609 12077 
3197 5125 10972 2228 1686 15956 6303 7070 6400 
7814 13840 12603 1432 17560 387 830 571 17072 
826 2172 2191 7384 10363 12678 12933 7855 10932 
9609 16692 15479 4343 8143 17572 15685 11614 10686 
486 10952 9874 14874 592 9263 274 5863 1144 
3088 4846 1781 4349 16800 5711 1815 15803 13396 
17265 5054 7824 13878 16992 1687 15650 8228 6236 
7550 14533 1753 1302 1117 5121 2244 2932 12260 
1016 6583 12430 14574 7339 1357 16624 15775 12392 
15596 14761 3063 11843 17294 5820 4031 3220 13521 
11920 16323 17613 398 5576 5172 9571 16296 3530 
5439 6635 8357 9728 8355 8712 5035 13343 8149 
6791 8182 3077 11120 4911 4132 12432 3359 7064 
9082 3509 14295 2245 16166 3386 2029 722 446 
14657 6920 14468 12513 5384 16402 9392 7331 3847 
11023 16954 9946 5765 10521 3268 4307 3719 7101 
3598 8749 9262 11448 13492 11938 1682 8078 12968 
14381 15850 538 6133 17605 494 10547 16961 11138 
555 12892 10552 16523 11409 17273 2997 17763 16769 
9878 10786 16314 700 10935 4789 13177 13216 14375 
11393 8485 8650 15832 15169 4941 55 6688 12850 
5999 11157 10215 15716 11687 1291 2312 15498 8255 
2345 8823 5217 5718 523 4928 2487 5591 14857 
9741 4899 7827 4242 3130 3496 988 12683 16256 
17048 17452 15123 3022 14791 8604 1512 6567 11866 
471 3168 8024 5912 7329 5614 680 1333 17730 
16534 11665 12731 17718 13978 14849 1092 4725 4484 
8933 1908 1164 5175 16738 6217 8586 3023 6778 
1895 2657 5238 11273 16742 8301 1109 11078 10790 
4490 17499 9236 6741 1606 12408 14281 2204 11188 
12825 13842 2550 13352 13874 52 5374 6910 10862 
9610 16504 16434 8063 5858 7535 3755 8028 4331 
13275 15898 14632 4806 11455 2168 14487 11477 13245 
16872 2473 8989 14637 12624 14868 2827 15968 9117 
13862 4353 14477 599 17303 1574 12558 12029 4754 
3672 6296 3104 15072 9950 2040 17599 10482 6425 
14286 14192 6854 304 7989 13087 9331 10727 3449 
10888 15061 15874 16879 8876 4494 5318 4390 2446 
466 8606 6971 13598 9109 4505 12394 2735 1224 
16370 8719 13133 10142 13211 11431 3914 3925 14074 
15515 3544 5484 17804 6261 1294 16439 7488 10168 
17448 14382 1741 7441 2153 4853 322 7988 15365 
16843 9947 13891 16575 13067 7259 17377 7283 15041 
970 12045 11717 12555 6794 9102 3052 12979 15711 
5006 4887 13599 5002 15177 16984 17156 3590 12747 
17420 2241 10795 6456 3569 16896 441 5026 5141 
13293 16150 16094 14713 14358 16410 12110 12435 6297 
4635 1407 627 12759 11571 9055 15852 13778 5355 
6406 6586 6949 14327 12317 17497 9176 10998 1739 
9087 13142 15325 17850 1635 1008 14865 4404 14049 
1860 1872 12011 15469 7272 17159 13231 9099 13043 
5 5460 10714 7438 3369 13176 10568 10006 13659 
14177 8191 14110 13723 16958 630 3947 10837 9012 
14616 2956 12844 2388 6830 4735 2339 17562 4812 
4868 2924 128 2384 5786 9871 10160 2784 5634 
15189 16126 3290 11672 10203 1680 11816 13327 15590 
13752 1963 1140 13924 2822 10498 1415 1480 2310 
10359 15160 9684 14088 16104 5748 12939 11258 5855 
9350 14069 17148 10416 1409 5301 4515 9690 12488 
3106 760 16396 13103 10619 9187 10414 14877 15434 
921 5019 10019 1395 481 6667 12836 10769 15788 
1765 10393 9385 7437 1089 12611 5772 13487 11592 
1180 15063 10975 4234 12698 13235 13032 4807 1670 
5795 3911 2026 5747 17583 9655 4721 14157 251 
7133 4820 7592 1980 5275 10625 11690 16814 6114 
4816 1420 4877 7724 17255 10858 13123 2174 13606 
4026 1129 15034 9810 3623 17165 16097 5783 7791 
17409 13418 14476 9426 1797 1887 12963 8282 10529 
13928 14011 1541 14118 17717 6541 9105 13660 13900 
11568 16371 15496 6969 14033 1997 3873 10368 17069 
11096 8060 6129 14004 7481 2941 11975 2499 1247 
9567 13560 13787 1990 7649 13884 4581 5544 13495 
16018 2417 1342 15451 13107 3152 12463 16996 10831 
12476 15457 9303 4460 9692 2463 13174 17164 11872 
14634 16673 11753 4240 12841 3353 13473 2696 10906 
7719 4320 9661 7235 1575 7772 10828 8105 10798 
3514 1557 4312 14171 3091 234 2626 11738 10642 
10592 9855 3186 4342 15976 3462 1380 673 11765 
3255 15402 4077 16925 723 4604 4274 2218 9802 
8571 13182 6498 15267 15899 14163 5646 5441 1510 
14768 11847 3955 16679 1136 12037 15000 11196 1572 
7169 6837 3985 6291 10959 7138 5540 14365 15992 
14989 13447 17313 15915 15969 10178 8503 6153 12460 
4878 8777 702 17121 7302 16293 3446 4556 1298 
5950 17116 1279 4308 8828 12127 3320 12314 16407 
8099 15186 5845 13408 2011 16470 15418 5919 11185 
10398 10778 4973 17084 2337 3712 2132 16168 17146 
5887 1444 10946 2290 9841 9647 14249 8441 16213 
9142 17298 16508 15572 38 6107 2641 12270 6805 
9002 7880 14326 15261 17619 11223 6357 15555 16525 
17832 11736 373 16430 1503 6784 4266 10652 15013 
4104 340 4847 7836 16955 10971 10176 10244 6685 
7869 3599 1182 9129 5139 9969 12195 10559 12753 
3110 6345 11664 12981 6780 14214 8492 9069 9148 
11871 2376 11233 1853 11587 9769 2253 16576 5136 
805 836 11482 2405 4770 4700 840 9123 5624 
690 6740 8107 7907 15624 357 6380 6065 16211 
10760 8284 7745 5565 727 7226 6118 10979 462 