# vtk DataFile Version 5.1
Generated by LIGGGHTS
ASCII
DATASET POLYDATA
POINTS 17850 float
0.0118939 -0.0269354 0.00173501 -0.0100846 -0.0246075 0.0017862 0.0152406 -0.0140572 0.00173705 
-0.00430196 -0.0120125 0.00174529 -0.0166244 -0.00896381 0.00177927 -0.0278638 0.00677558 0.00181568 
-0.018231 0.00774663 0.0017604 0.00069031 -0.0291522 0.00178918 0.00201504 -0.0293105 0.00187129 
-0.00710862 -0.0285464 0.00181205 -0.00111981 -0.0282386 0.00178143 0.00194759 -0.0278093 0.00173342 
-0.0121959 -0.0268239 0.00184539 -0.0103559 -0.0265962 0.00183112 -0.00607303 -0.0272146 0.00179132 
0.00245008 -0.0265014 0.00181198 -0.0131773 -0.0262673 0.00182715 -0.0151631 -0.0252112 0.00171949 
-0.00938775 -0.0258899 0.00175269 -0.00727786 -0.0258571 0.00173629 0.00517217 -0.024555 0.00174308 
0.00884364 -0.0249906 0.00174049 0.00372988 -0.0243221 0.00174498 0.013096 -0.025031 0.00181335 
-0.0083541 -0.0246056 0.00175391 -0.00570026 -0.0244852 0.00185294 -0.00909377 -0.0230327 0.00178837 
-0.00800107 -0.0233979 0.00181995 -0.00643237 -0.0232117 0.00177736 -0.00428816 -0.0227293 0.0018061 
-0.00222507 -0.0234192 0.00177067 0.000348286 -0.0230785 0.00179917 0.0020668 -0.0222463 0.00176889 
0.0120999 -0.0236103 0.00180975 -0.0107589 -0.0223847 0.00194375 -0.00516316 -0.0222789 0.00213306 
-0.00293942 -0.0219633 0.00180616 -0.00174638 -0.0223415 0.00174823 -0.000267582 -0.0214261 0.00177186 
0.010275 -0.0229097 0.00179485 0.0159144 -0.0233065 0.00173296 -0.00542487 -0.0213242 0.00174906 
0.0158465 -0.0213335 0.00173097 0.0183833 -0.0216647 0.00175653 -0.00407062 -0.0202134 0.00174061 
-0.00181419 -0.021165 0.00183777 0.000971835 -0.0203862 0.00179161 0.00853435 -0.0213361 0.00190973 
0.00945794 -0.0206923 0.00174257 0.0120793 -0.0202857 0.00179389 0.0129134 -0.0214612 0.00171277 
0.0145536 -0.0217669 0.00170735 0.00647584 -0.0205397 0.00178058 -0.0213061 -0.0189068 0.00175851 
-0.00437446 -0.0191106 0.00180973 -0.00326647 -0.0190975 0.00174891 -0.00130801 -0.0197294 0.00185161 
0.0104424 -0.0194774 0.00184579 0.0160053 -0.0194508 0.00175603 -0.00943141 -0.0192074 0.0017273 
0.00835728 -0.0202366 0.00176905 0.0222476 -0.0191963 0.0017861 -0.00538544 -0.0179856 0.00174435 
-0.000559941 -0.0175581 0.0017906 0.00920291 -0.0185823 0.00172175 0.023045 -0.0183362 0.00176309 
-0.0241854 -0.0165757 0.00176392 -0.0136183 -0.0173233 0.00172797 -0.00709051 -0.0165928 0.00172485 
0.00182138 -0.0165486 0.00181314 0.00551576 -0.0171778 0.0017178 0.00775253 -0.0172546 0.00178894 
0.0104422 -0.0173646 0.0017752 0.0152797 -0.0167094 0.00174709 -0.0119524 -0.0162906 0.00180247 
-0.0033248 -0.0169154 0.00171491 0.0163403 -0.0166186 0.00172385 -0.0244509 -0.0154403 0.00181708 
-0.00670456 -0.0155323 0.00179604 -0.00501898 -0.0150356 0.00180195 -0.0011487 -0.0157195 0.00174769 
0.0135607 -0.0160832 0.00178568 0.0194716 -0.0153127 0.00183138 0.0250163 -0.0150288 0.00175582 
-0.0235548 -0.0137955 0.00173818 -0.0226145 -0.0142829 0.00177067 -0.0107058 -0.0155329 0.00186917 
-0.00974113 -0.0163015 0.00171774 0.000234442 -0.0142382 0.00173075 0.011707 -0.0148528 0.00173163 
0.0182977 -0.0153557 0.00176555 0.021147 -0.0149818 0.00183567 -0.0188795 -0.0146445 0.00177805 
-0.00591487 -0.0143723 0.00176156 -0.00496185 -0.0137886 0.00177274 -0.00128012 -0.0135896 0.00175178 
0.0129894 -0.0142022 0.00176141 0.0175523 -0.0142678 0.00176464 0.0203831 -0.0142804 0.0017446 
0.0220825 -0.014489 0.00177467 0.0231833 -0.0144632 0.00175747 0.0246641 -0.0140003 0.00183536 
-0.0250955 -0.0137235 0.00177307 -0.0214816 -0.0135298 0.00179968 -0.0158616 -0.013448 0.00178408 
-0.0115811 -0.0143061 0.00174855 -0.00840669 -0.0127144 0.00175531 -0.00381905 -0.0140938 0.00183385 
-0.00224872 -0.0131306 0.00182539 0.00922699 -0.0145047 0.00176242 0.0115955 -0.0134833 0.00178543 
0.0160476 -0.0132731 0.001767 0.0225228 -0.0125106 0.00183449 0.023678 -0.0134843 0.00186054 
-0.0244268 -0.0128636 0.00173588 -0.0232788 -0.0122408 0.00176293 -0.0220865 -0.0122569 0.00183201 
-0.0170672 -0.0129775 0.00172466 -0.00945068 -0.0122618 0.00180657 -0.00539405 -0.0122389 0.00184395 
-0.00103035 -0.0123976 0.00177771 0.0107048 -0.0123595 0.00181448 0.0126691 -0.0129004 0.0017825 
0.0238689 -0.0123464 0.00172115 0.0251411 -0.011923 0.00173035 -0.0254686 -0.0126677 0.00178111 
-0.0164112 -0.0113213 0.00176054 -0.0150422 -0.0118151 0.00174169 -0.00759467 -0.012002 0.0017459 
0.0126074 -0.0117964 0.00176841 0.0156496 -0.0122199 0.00177563 0.016763 -0.0123984 0.00175635 
0.0177175 -0.0128976 0.00172966 0.0192243 -0.012422 0.00185481 0.0203009 -0.0119356 0.0019536 
0.0260912 -0.0113185 0.00182774 -0.0226267 -0.0111274 0.00176087 -0.014078 -0.0114074 0.00171059 
-0.0122852 -0.0106729 0.00175595 -0.0102651 -0.010967 0.00175449 -0.008228 -0.0110286 0.0017105 
-0.00572454 -0.011124 0.00175983 0.0114904 -0.0113327 0.001922 0.0147015 -0.011485 0.00179804 
0.0157377 -0.0111457 0.00176574 0.019446 -0.0112224 0.00178493 0.0204317 -0.0107904 0.001766 
0.0213628 -0.011479 0.00197158 -0.0251452 -0.0108694 0.00175079 -0.0244573 -0.0100568 0.00171934 
-0.016513 -0.010117 0.00176693 -0.014705 -0.0105639 0.00174366 -0.00905487 -0.01018 0.00174536 
-0.00243184 -0.0118026 0.00174956 0.00337553 -0.0137253 0.00185071 0.0058174 -0.0115916 0.00180253 
0.00812078 -0.0112333 0.00176081 0.00905856 -0.012398 0.0017147 0.0140908 -0.00960538 0.00177242 
0.0164344 -0.0101318 0.00192279 0.0179112 -0.0108801 0.00179853 0.0215994 -0.0103367 0.00180803 
0.0227938 -0.00998237 0.00173493 0.0237763 -0.0103392 0.00178562 -0.0263315 -0.0108946 0.00175387 
-0.0212061 -0.00939578 0.00173159 -0.0155157 -0.00968471 0.00175333 -0.0144092 -0.00949708 0.00182372 
-0.00671446 -0.00946986 0.00183239 -0.00164655 -0.00961995 0.00176819 0.00632819 -0.0106042 0.00172619 
0.0148785 -0.00881406 0.00180775 0.0197538 -0.00947374 0.00183869 0.0212715 -0.00918048 0.00190216 
-0.0211985 -0.00788493 0.00170777 -0.018051 -0.00939225 0.0017591 -0.0154831 -0.00860574 0.00188471 
-0.0134743 -0.00895243 0.00171057 0.00546813 -0.0100444 0.00179384 0.00874855 -0.00928997 0.00175243 
0.0165334 -0.00884938 0.00182047 0.0223198 -0.00889707 0.0017954 -0.0252525 -0.00830152 0.00179466 
-0.00324288 -0.00893476 0.00175583 0.00653241 -0.0094596 0.00174407 0.0204847 -0.00843679 0.00189917 
0.0215433 -0.00808129 0.00181045 0.0257412 -0.00837352 0.00172607 -0.0208273 -0.00689512 0.00172689 
-0.0156184 -0.00716713 0.00177454 -0.00503881 -0.00769914 0.00188495 0.00233167 -0.00869314 0.00195677 
0.00392444 -0.00862149 0.00172011 0.00485859 -0.00921646 0.00174533 0.00589296 -0.00845656 0.00178564 
0.0276566 -0.00770778 0.00171811 -0.0283963 -0.00655339 0.00189537 -0.0170597 -0.00650788 0.0017348 
-0.00179895 -0.00643803 0.00176049 0.00699 -0.00786365 0.00179351 0.00902937 -0.00696647 0.00186527 
0.0172145 -0.00664719 0.00172684 0.018757 -0.00680828 0.00183896 0.0215698 -0.00636159 0.00171461 
0.0241705 -0.00628121 0.00179449 -0.000971814 -0.00553181 0.00178944 0.000216403 -0.00705014 0.0017896 
0.00219789 -0.00647045 0.00175758 0.00430295 -0.00623472 0.0017754 0.0171628 -0.00548123 0.00189654 
0.0189108 -0.00537663 0.00175845 0.0265658 -0.0055815 0.00179694 0.0275146 -0.00649166 0.00175829 
-0.0204348 -0.00447926 0.00173109 -0.019336 -0.00439121 0.00176613 -0.0165226 -0.00429117 0.0017921 
-0.0138691 -0.00478718 0.00173132 0.00323596 -0.00604282 0.00170597 0.00669245 -0.00526856 0.00173684 
0.0112577 -0.00614961 0.0019387 -0.0177164 -0.00369309 0.0017338 0.00140417 -0.0053878 0.00172411 
0.00391331 -0.00522104 0.00175054 0.00782025 -0.00502828 0.00182708 0.0206567 -0.00376537 0.00207042 
0.022596 -0.00491733 0.00176734 0.0250885 -0.00424038 0.00172237 0.0264295 -0.00445142 0.00174619 
-0.019545 -0.00310674 0.00177832 -0.01532 -0.00345042 0.00177411 0.00342132 -0.00420822 0.00178099 
0.00678048 -0.00408793 0.00177765 0.0272037 -0.00376233 0.0017281 0.00271711 -0.00305355 0.00181696 
-0.0185257 -0.00237068 0.00177857 -0.0176834 -0.00161956 0.00177654 -0.00978583 -0.00187497 0.00172872 
-0.00752277 -0.00228433 0.00174032 2.3397e-06 -0.0030096 0.00170242 -0.0194782 -0.000677036 0.00203713 
-0.00774573 -0.00123132 0.00176537 -0.020733 -0.000464546 0.00184392 -0.0151243 -0.000659835 0.00176847 
-0.0096858 -0.000366721 0.00174604 -0.012436 -2.28528e-05 0.00182332 -0.0180812 0.000853965 0.00180377 
-0.0137006 0.000541905 0.00194383 -0.0127494 0.00124365 0.00205748 -0.00640732 0.000875657 0.00179723 
-0.00526688 0.00134943 0.00176724 -0.00272599 0.0012874 0.00174584 -0.0152957 0.000450529 0.00176178 
-0.00871345 0.00169322 0.0017596 -0.00697216 0.00182128 0.00171377 -0.0193334 0.00251404 0.00172712 
-0.0134561 0.00214282 0.00182393 -0.0122206 0.00255363 0.00185627 -0.00271853 0.00258972 0.00172899 
-0.00188311 0.00193338 0.00176891 -0.0171714 0.00238778 0.00181731 -0.0113974 0.00338669 0.00180903 
-0.00599251 0.00256853 0.00175379 -0.00518594 0.0038003 0.00182249 -0.00386637 0.0034121 0.00182268 
-0.00168287 0.00311648 0.00175035 0.00370068 0.0032523 0.00173326 -0.0140425 0.00349906 0.00182261 
-0.00835743 0.00431486 0.00171876 -0.00738485 0.00367275 0.0017229 -0.00651046 0.00433955 0.00174685 
-0.0028867 0.00378559 0.00173363 0.00241244 0.00498851 0.00175351 -0.0291305 0.00406528 0.00178502 
-0.0150894 0.00378787 0.00178425 -0.0129258 0.00426553 0.00182641 -0.00337392 0.00497272 0.00178223 
-0.00224843 0.0048814 0.00175347 -0.00072576 0.0049785 0.00177802 -0.0232171 0.00487307 0.00181236 
-0.0204972 0.00564513 0.00173371 -0.0119253 0.00476035 0.00176244 -0.00948269 0.00494203 0.00173112 
-0.00799165 0.00554735 0.00173828 -0.00669881 0.00535767 0.00172147 -0.00559378 0.00519981 0.00172057 
0.00140683 0.00669472 0.00177755 -0.0274214 0.00577247 0.00180322 -0.015799 0.00481548 0.00177997 
-0.0126556 0.00577289 0.00177227 -0.00899436 0.00587515 0.00179381 -0.0287482 0.00610247 0.00175749 
-0.025713 0.00633197 0.0017621 -0.01203 0.00670179 0.00175652 -0.0108889 0.00635953 0.00179096 
-0.0032358 0.00708794 0.00179183 -0.000562554 0.00726183 0.00175117 0.00378048 0.0068323 0.00175082 
[...]
POINT_DATA 17850
FIELD FieldData 6
id 1 17850 int
15853 3140 16409 9761 3485 9288 5909 2283 1933 
10269 5445 4862 17360 11174 13856 2797 11167 12320 
10302 5082 10941 5011 4845 1021 9620 7314 7858 
8190 2505 4690 3306 7917 816 7156 11027 12515 
1441 5274 3902 7619 11556 11228 12483 14872 4816 
202 7880 9811 4659 10790 12347 6771 163 14875 
11669 5927 1022 13711 9100 5708 8925 5100 4676 
116 11926 12259 8969 11736 6075 12014 5157 14360 
13751 16104 7485 6317 11818 13172 1574 300 6805 
17354 12972 11292 12702 15199 4588 5646 6129 16037 
10488 17656 10013 4877 8540 5801 15022 9681 11456 
9835 4823 15128 15423 164 11904 3786 16224 45 
4760 350 14048 14895 1218 5370 10950 401 1272 
5880 7189 3101 14176 14243 10381 6737 6326 6044 
4631 10479 10700 14548 9170 9794 17177 1607 13655 
5262 2912 6277 887 9142 6213 904 1804 8197 
17387 11454 11744 3407 597 6391 9489 10487 552 
16960 6808 1718 14483 6241 12486 10493 10061 8549 
11055 6532 9786 5390 10824 2707 11410 14258 6457 
7112 13266 10349 6804 3796 4083 17292 6858 3842 
1074 4702 7675 3940 5889 5748 2925 17364 17240 
4279 3873 5074 12297 12660 3344 6710 3368 11468 
3298 2791 4711 11521 6935 11945 8272 7814 3750 
4785 4838 5497 9819 3018 9730 12017 3180 8290 
11859 6698 4937 2359 5612 5795 4716 6651 604 
9849 6379 11920 10736 14836 379 606 6271 3429 
2460 12468 11160 5702 6851 2858 3778 12689 3147 
16301 16213 8693 16704 14862 2830 9027 11282 15485 
5290 5945 12690 13014 10148 11254 4407 12269 1136 
10114 4580 12359 9619 4491 17289 5940 12119 12028 
5170 4239 3860 2435 7309 8621 9710 392 7219 
10444 17677 11330 11481 12106 11972 2820 4772 8161 
5042 798 10635 9001 4475 1830 8740 3974 10517 
2266 9188 9772 5113 9784 5865 6122 1967 7129 
6260 172 12672 11655 6562 11289 3934 5475 6427 
6225 3604 1234 5062 3164 993 12422 6535 3899 
8854 9594 5926 2079 5285 5329 4012 4628 5863 
9279 3421 1861 9645 682 4827 12700 6362 1009 
5882 8768 1359 12735 5110 6722 4766 11134 12087 
7621 10655 2978 11023 7329 9186 12146 9549 2372 
11719 6322 3771 6679 1363 5577 17580 3730 3625 
3117 313 2352 3165 9337 9593 352 3039 8922 
6538 7687 4844 8946 2525 11810 6043 6090 8646 
5560 559 897 9975 12555 923 5260 5045 8750 
1889 452 4793 6215 8439 4117 5161 852 14069 
13508 7822 7389 4353 14639 10953 8370 2022 5712 
473 102 2883 5675 6448 4011 6231 2388 1923 
6662 5039 14913 12630 3732 10695 7357 9886 8793 
7751 6629 2058 4758 9180 17412 1999 1721 7465 
15846 4977 8882 5019 4215 10901 1316 8824 2835 
11113 3523 5070 16007 9482 9470 16448 11751 8773 
9864 13742 10536 4635 4234 8770 14832 3628 601 
12974 3777 13568 10649 10281 12838 16534 9841 7438 
9003 1344 9872 4873 12612 14722 2098 2276 11907 
10453 10798 17530 3024 6914 5954 11327 10151 11577 
7908 9195 2118 5138 11374 12250 9173 9117 16226 
8331 11029 5876 16056 8644 15505 10507 10815 2089 
6470 8904 9419 15549 11129 9685 9032 11948 10354 
4683 4976 7402 7629 5649 275 8772 17154 10750 
16533 5327 3151 7095 9921 11951 3460 5322 2958 
14282 2178 6011 7665 758 9151 16830 10305 8353 
7872 1845 6363 10464 7392 5903 17615 9146 14319 
2528 17053 6521 8403 9901 10136 8231 12299 6070 
17802 8934 7269 12807 12716 14724 6664 15508 15344 
8131 3257 14018 5568 7516 4338 5856 9200 10419 
9558 14155 13980 2489 10471 4336 1947 7153 7646 
8445 10257 10559 5446 4661 10264 10271 16583 15494 
17331 8819 11242 6931 8581 1742 9656 5695 5487 
13898 15797 10280 12365 1131 625 9721 9258 10638 
1510 3743 5992 4979 991 17021 6401 7978 17414 
14595 15674 6028 8476 10861 4227 8088 6786 10134 
5929 8542 7513 12193 6416 12752 12936 11503 5623 
14822 2861 3813 13323 4563 11587 10286 14987 12384 
437 6219 4465 12680 10170 6523 2680 5221 7235 
4226 9153 4666 16485 8029 8000 5061 8688 3042 
12661 10990 10586 9334 4833 3237 10540 6799 6189 
11278 3467 7668 6585 8788 11574 11867 803 8971 
16768 7869 11041 2019 3592 375 11916 7000 10119 
11683 11905 2197 1887 4742 484 2156 3637 11396 
4247 1531 1620 3486 12424 12789 4700 7201 9807 
6136 2091 1443 6321 11561 12010 12070 12411 7688 
5598 695 12205 6492 15731 5857 12169 1049 11617 
8799 6584 6234 8851 6795 10353 347 4748 9632 
9217 8855 7922 7322 14021 6035 11778 15509 15605 
621 667 7911 260 2531 5794 1217 11338 4414 
5047 9954 12185 11221 10969 16263 2805 5343 11061 
8935 5752 1391 1940 4707 577 1099 11675 14429 
7427 16005 6888 1072 4493 6329 8073 10918 10612 
6704 1472 8673 9979 3450 8401 2425 3487 3783 
16826 12363 17668 13195 11642 15021 11009 8963 11472 
2520 8607 884 11984 4596 1541 433 4504 1801 
2708 6172 11143 13341 13930 4955 979 6660 1988 
3746 8415 811 3402 8818 10139 4040 7936 5303 
932 6547 9855 10961 6002 6025 1340 11506 1953 
8683 6153 1055 890 3231 2026 133 5199 5440 
7394 15214 12352 9409 13091 7240 1061 4765 11287 
5949 1220 11932 11654 11910 5350 4525 12642 1393 
734 5222 2922 4556 1002 9183 4282 5963 3677 
10652 5847 5925 2668 5015 1190 3717 2664 1285 
5275 968 12478 2171 3021 1980 3933 11271 301 
2928 2996 4431 2686 14208 11597 2787 2574 6728 
3437 2841 5176 5733 5150 12768 10519 12136 14593 
14979 6306 3148 646 9626 1360 3871 1814 2541 
818 9575 2806 11163 11293 883 13624 4410 3531 
820 1854 767 5143 6393 4052 5126 12373 11690 
10367 5000 5317 9002 2929 3266 3966 4624 4293 
1327 10545 9732 9805 14633 2433 7232 16035 2540 
928 11436 5933 2111 9659 2885 8875 3946 575 
15606 16411 5132 1605 5679 6511 444 6882 7051 
7458 8528 12064 11060 6661 12546 7794 5734 4500 
5572 685 4729 1737 12571 6395 7610 10273 4527 
5013 9965 5651 2470 2299 11752 6154 6626 3797 
11037 9883 9007 6750 7310 11459 11610 3355 10844 
4131 557 4717 11382 5919 7179 9000 1641 5524 
1847 4815 2565 11526 5158 9976 10355 11449 7154 
9043 5259 10773 12677 9728 3553 11353 2911 3490 
5893 12008 10184 7728 11615 952 10462 6054 5879 
1102 1053 3372 5713 6512 7133 2992 7211 17538 
4619 7 5388 7742 3554 3134 10648 3564 3558 
4543 3307 9309 3079 4339 138 11794 10926 2586 
8565 10252 9915 1052 589 562 2227 82 6016 
6501 6862 5326 9996 5346 1662 9881 10182 12996 
8566 8873 4330 644 11557 2045 3089 9907 10495 
3345 1349 6572 4140 12723 7043 1745 7673 271 
4031 2872 3509 241 5792 3937 1445 1771 1128 
5295 1668 5043 10654 2080 4922 6943 17619 8328 
5169 6276 3722 6332 3124 2833 3957 2320 6245 
5373 5547 3136 12229 13919 13378 9602 6721 9650 
5899 4903 11629 8229 2003 6514 3529 10978 3709 
2646 10436 1537 16327 8418 8555 6849 180 1754 
5049 12241 4158 2337 8456 17000 4471 5994 6864 
3014 4521 3701 11054 209 15755 15926 3731 12322 
9403 11212 6385 3195 3454 1160 7968 6673 2088 
5593 3070 11403 3618 4156 13384 4081 4120 5635 
8620 6214 9047 6067 1518 6905 6009 12395 7064 
3981 7946 1495 4771 1039 2185 17324 2135 1900 
661 9150 1894 10524 17139 9555 730 348 5766 
2468 6464 4326 5054 5459 12465 790 1634 7507 
11098 8696 4316 5088 3694 7611 2986 1437 13587 
11892 5631 3126 536 11354 10544 542 1984 4627 
5790 5627 10180 15384 12039 12650 10820 2001 10340 
2816 6082 6606 10972 2755 7824 12194 3826 10968 
1252 2345 5804 701 16998 5228 5108 9862 1976 
4555 3045 5956 10994 1427 9536 6520 4243 572 
3481 6441 7528 477 9672 3532 1615 8074 11609 
5338 9298 2801 206 9991 4925 5297 2072 1896 
5608 638 5735 4094 2196 1758 5087 4350 11869 
14132 7327 8482 3359 5885 2834 6567 7996 3798 
11355 4876 3676 5458 1812 5982 8924 810 2200 
5200 3914 4591 2773 463 4869 10632 21 666 
1819 6160 1905 3216 7243 9611 4848 4735 1828 
5809 1307 5314 127 10477 1778 1469 4382 12755 
2159 8835 8371 1452 6270 530 15708 12273 13625 
7648 9994 4695 9931 9638 8588 9187 13620 4788 
7197 12731 6084 4769 1051 1840 3994 668 10202 
957 2112 11943 17584 8157 14671 1408 12547 7580 
1554 9747 6325 17562 637 4965 11250 12863 13629 
7431 14218 13357 2201 7498 7320 1092 6834 8334 
11836 627 96 7949 4402 4993 8908 12595 558 
2225 8423 2900 6195 5394 3881 12821 5656 8155 
11281 144 324 9462 11188 6497 927 13739 5767 
8649 5490 8246 13326 3375 5101 4637 3300 1147 
7198 7873 7418 17701 13646 8568 1103 6885 2699 
16426 4798 17349 13650 8344 812 1026 3137 4253 
11544 8291 10856 4485 7449 11959 5422 3441 12153 
3203 13844 17464 9927 12488 13376 5465 2042 16525 
10161 13206 11769 12771 2809 2691 5505 647 10903 
11606 2124 15828 16884 1836 14133 13103 9913 11527 
8797 1494 4273 15189 15996 8447 15170 10936 7079 
13998 11563 5913 2028 16076 8273 11366 2063 6396 
1796 6380 17261 2134 10398 17804 14800 14379 17745 
7893 14482 9851 1535 2942 2946 912 9634 9735 
6012 3591 1346 11434 5368 2269 2265 15298 12214 
17636 14839 15098 13416 15616 11421 8372 3008 5434 
14760 17741 8801 11540 10766 12471 9297 17027 6205 
6291 17204 8954 3097 14006 16609 17302 14843 5756 
17735 13162 11476 11949 7203 3310 187 6984 460 
11572 7959 13067 14103 16420 10043 5997 8689 10993 
1392 8258 13871 11599 16893 9405 2669 7520 15438 
7295 7301 1808 5839 15092 12951 17840 5315 3069 
15752 6898 15175 15140 13744 12449 2810 8404 2097 
15402 9104 6065 1461 15825 9749 13307 11238 3627 
10081 1454 9775 6101 6109 6453 9742 6251 5065 
12817 14976 11647 11173 12502 14125 13269 13575 15440 
9884 2670 813 2649 10531 1750 13858 4165 3955 
7958 1893 15646 630 4744 2944 143 1467 9648 
17036 15167 1450 10581 11848 3186 11588 9467 11717 
533 16258 2853 15811 280 11749 1805 9868 1343 
16262 9759 7136 6672 7138 3336 4292 4283 5486 
9388 7341 2852 13560 13683 234 5883 6330 3049 
2657 8248 11316 6915 1675 3142 3032 2493 1971 
1325 10408 6419 1319 3704 5219 8032 15704 304 
6488 12566 8352 12594 11566 6556 11662 5859 4560 
360 11684 5890 2459 3461 11703 675 5243 8672 
5671 3791 7312 2364 1839 6210 1197 2316 9381 
9017 11279 8805 714 3401 3828 546 8414 11147 
5562 11207 1557 3262 6959 345 17390 2651 10213 
17474 11229 9499 4232 331 1722 5527 9060 12580 
3458 2950 435 6601 8036 4684 3423 4817 1240 
6177 5055 3264 11986 16008 195 16116 961 2750 
254 3567 11259 6186 2439 12519 6014 2960 14539 
16953 6563 1528 4846 2215 2383 1763 11593 8593 
15601 15053 13168 15488 16542 5352 4712 5081 4101 
169 582 4991 8043 2264 432 2385 9871 17783 
3623 10040 4388 10388 15241 17156 1912 5516 4041 
2382 4462 11705 8557 2212 12624 9809 641 1879 
8916 10423 1063 6320 3221 2046 12845 15445 15765 
12648 1181 2344 5483 8306 10599 9446 7790 11975 
5754 11504 4502 2899 7913 5024 3712 3727 16941 
2736 11385 7423 3910 3687 522 3188 3726 7793 
17786 15337 4098 4365 5293 4460 9267 3480 4835 
8728 10689 5028 8474 10776 9439 11024 12866 7192 
2780 1175 2984 874 1986 1719 780 3255 1455 
382 5851 2598 2673 7361 12230 7805 6531 10036 
6976 10208 4565 12539 140 7534 13113 7434 3525 
11378 6158 4653 6639 2881 16728 10642 14842 11422 
2305 9829 2800 4167 569 8671 17723 9414 9059 
7666 14271 6740 1133 7448 5495 1423 11246 1143 
2638 118 6837 2049 6471 6015 17262 7212 7226 
12222 3918 6473 12413 9418 5144 4432 134 10004 
4847 6546 6052 4161 17838 10159 5117 176 8477 
3330 11929 11467 12390 12922 7837 2784 4359 17304 
755 390 10902 2723 3683 17608 1384 10514 6711 
3587 7590 4548 7710 5753 7892 15209 4342 13408 
6300 3316 9898 7057 15603 17601 6854 3253 2392 
6767 4582 1741 7105 12496 3337 12104 5424 6826 
7047 7282 6890 11214 14122 16616 945 15725 13569 
11621 1015 1898 6506 3993 9149 2488 15156 6088 
6117 7525 8841 2166 1768 10406 7472 5660 7894 
9682 6997 9254 1647 6446 2424 1389 2396 5414 
9175 11062 2053 10300 1418 9219 2923 15321 11184 
10309 7182 10209 868 15586 14627 1059 3342 2844 
5537 12470 12225 6232 6013 5793 10272 9416 10289 
16587 9329 14138 10439 12292 4291 11308 6725 6266 
10907 5299 5351 11942 1182 3277 16138 8489 8634 
1292 983 8087 12040 9225 8959 4225 3319 17756 
9036 12646 707 6230 1169 6951 9861 3534 8529 
11223 9471 12415 10329 10249 5435 4944 9048 3232 
2818 11903 16400 7032 7106 7967 11200 2056 3033 
10023 7382 17438 12608 8533 11216 3983 5797 10403 
3318 1235 5798 4476 3663 2409 10243 13557 10331 
11486 9081 11151 12682 10793 135 12200 7297 3521 
5601 8627 5357 9780 6041 198 7579 17047 3965 
11894 4573 9733 9565 10956 5336 7363 8970 8811 
17406 885 9940 6063 9453 9676 4825 4036 7500 
12301 4051 4970 1863 6603 9338 201 6570 6730 
9892 5629 2025 8442 14250 8475 302 10569 3855 
1901 9787 6691 6717 6098 4763 1468 12309 9068 
2233 3856 7029 1372 5003 10205 1529 11036 5093 
16733 2850 3166 4571 9997 8865 11052 17322 12158 
11430 1036 750 1152 3303 3334 747 9192 3247 
5905 10792 15839 7221 12732 8119 2589 8930 11896 
4761 6683 3679 1050 11889 1031 11265 8259 15463 
4049 2610 9094 10063 10893 5715 1911 4248 11636 
960 9521 14 998 8991 3650 10219 9557 12792 
12032 16364 12339 10996 10580 3171 13764 5255 6643 
1874 1487 5494 3774 2480 7591 16 1959 6115 
4329 2840 9804 6237 13979 12380 1825 5214 4954 
2052 844 2041 3853 3053 6575 2997 12602 10042 
16344 4951 6381 832 658 7838 4237 10687 3443 
1108 1406 3376 11865 8464 13765 6184 10390 8 
2843 851 56 9369 16480 5742 5273 5606 2271 
5123 12730 12549 17728 17681 1421 5724 192 5693 
16216 1802 6991 4200 12425 10590 17732 12827 389 
3282 329 10382 1245 15843 8545 11980 7689 10963 
13063 105 4789 11102 2893 3241 39 11483 2414 
1983 250 12296 6925 6534 10711 4923 2507 269 
1625 4774 532 1827 5745 2995 2219 5739 6494 
12705 1440 2158 239 7369 5121 3971 4749 4450 
3132 8514 8467 7275 3189 512 720 7247 4217 
2547 9181 5056 10910 8067 5156 10284 4567 1422 
10242 3044 581 2187 10833 7972 9909 6802 3245 
11919 4095 6491 3098 5694 1374 8465 7835 2533 
12647 14740 12578 12163 2291 4132 1464 10704 11788 
12600 12062 5112 4328 827 3979 6759 10535 3654 
5912 6133 9165 10624 8035 402 1157 1701 4722 
60 7372 1585 1453 6254 1831 2012 15579 8618 
1569 11263 4528 7614 2081 3848 8815 3386 10484 
12785 9833 1753 5900 6426 129 4498 3741 4276 
2139 4837 14294 1876 3202 716 10851 1892 4651 
6110 4473 4486 7317 4263 1643 3769 1748 4911 
1918 848 11868 4223 1716 5022 6887 5367 6760 
4952 9678 2162 356 3740 566 6212 6000 4202 
2871 6468 7499 8380 15366 8863 756 3063 5592 
4899 6173 4741 2209 5416 1378 6694 2555 2512 
196 5512 5765 9389 6554 2082 4669 5868 145 
3588 3837 8988 4878 4604 6900 2682 3296 287 
12113 5758 5771 4075 1963 9773 4812 5480 775 
6478 4479 7316 5796 6168 1951 3183 107 2251 
5079 3030 3657 8837 11944 11571 6616 12216 11745 
5240 4231 5622 864 7810 6604 4600 1200 146 
4192 9914 1014 14817 69 15378 8698 8676 2698 
1041 3067 10887 7857 6859 7828 11058 4860 943 
8010 3514 4230 8463 6963 5832 15834 5539 1368 
5345 9253 1746 376 8164 5507 11485 7371 11306 
16309 13593 7843 16158 16671 8877 17392 3405 7116 
5566 10845 14389 13033 8310 7991 1317 12159 8096 
12219 8940 10291 7254 1356 3099 3935 5380 10336 
9476 10573 7132 11178 3819 2867 6107 11126 5423 
2534 8336 9952 11328 12794 11085 8586 7622 1185 
13180 13267 17318 11069 11237 2423 4430 12736 15570 
13240 17377 14420 7960 17376 8885 861 15913 14417 
14232 7348 7061 3161 11187 8075 3714 13876 14582 
12998 9552 6739 16289 13222 8860 10553 11343 10656 
6944 5407 7965 5115 4668 17411 15610 15033 2163 
13340 15317 3510 16407 15007 16377 5120 12190 7045 
11169 5833 4025 10791 3442 13617 17244 9176 17778 
15136 12315 6364 15063 14550 14784 14504 7879 869 
7460 12378 13829 1030 6242 3084 10396 5665 17634 
9574 17496 8394 4459 3494 8253 13325 17625 16970 
8878 15860 16749 1489 5212 10125 11957 7272 4806 
11435 10380 13825 12286 8536 14412 6983 7791 817 
4252 6104 16366 16965 16424 12033 9885 11974 14141 
13603 7717 15439 10906 3692 8957 10400 13268 13741 
11028 15421 3620 2010 9922 12444 15908 12097 8845 
14447 8318 9753 9120 4218 6283 3149 10834 15997 
17165 14686 8551 9092 2170 3739 10443 11666 9038 
4648 1995 2362 1493 13089 5542 974 2354 17176 
15575 16816 14819 14856 11290 11046 11711 1587 8541 
17622 12847 11968 8611 10246 2948 9164 867 14004 
351 5291 10927 10735 15376 14435 14501 15166 14423 
11118 5824 5371 13802 9179 1833 9420 14938 11025 
5349 10610 2733 7410 16604 16700 339 8595 5697 
10087 16672 15948 13159 15977 9969 2037 5985 3497 
4397 3394 16864 7319 12289 11723 6256 9182 4371 
9930 7724 14441 15134 7533 298 10064 13552 8992 
8086 3399 4205 805 8559 5269 4405 2839 7255 
8624 6409 38 2943 16394 16472 1708 7265 6351 
16560 13699 16045 7639 10800 6247 5419 11480 11319 
8358 4886 3810 7403 2613 2213 9137 3781 9385 
17193 3527 4362 6810 3106 9273 16233 7903 7488 
3572 1168 53 11432 5306 4228 9184 10248 14614 
17645 17427 14346 14728 7242 424 3492 8859 1810 
1928 4096 7031 8348 15357 4434 6463 1800 1130 
2603 14053 462 8398 1028 2224 16834 5604 226 
7134 15124 13 13883 9880 15856 12074 16491 16026 
901 865 5040 3863 4103 4639 10232 3846 1118 
10690 9139 2475 2248 5396 4325 8011 7770 10469 
9525 16109 13015 17440 288 11215 488 197 3238 
4102 6161 11603 3226 8709 7504 5249 14293 17583 
15788 14596 6817 8501 10028 8254 15503 13143 15918 
1158 3753 9724 2828 4296 5105 12364 2190 8453 
12645 10625 6542 11482 11418 5907 2513 1549 7087 
3535 7158 9895 6378 1430 2442 7190 11817 1204 
2048 17103 16166 12401 12184 2517 4612 8657 10203 
7206 16693 17164 1936 3977 8613 5296 13852 10864 
3990 8829 725 1975 8469 9160 17451 3785 4540 
2648 10140 11819 9762 14834 13243 14040 11404 7494 
7349 8520 717 3835 2584 878 4412 12171 1997 
8436 11122 8848 4085 14124 6024 11253 6593 4126 
10279 11087 7792 14985 6017 4453 3205 6275 9031 
13574 16204 12006 106 2119 3903 4642 6541 5957 
4302 10260 8314 11386 833 2687 11688 9295 7036 
10345 4348 3146 10448 3278 2160 16612 7849 9713 
9103 10768 7419 9363 5803 12499 11389 2776 11923 
752 6185 6240 12659 8407 11797 2329 7196 3472 
3447 10525 11861 2738 11390 11953 2278 12015 5686 
4444 5268 357 3870 6868 4524 11536 12756 8635 
7416 6874 6836 7761 6708 3353 9140 29 1086 
14544 9830 8502 4519 7712 540 8430 16754 1018 
405 6540 7984 5705 12643 1089 5358 4275 10966 
4985 9878 6150 12993 13178 10304 6965 7616 11695 
5204 3616 15205 3653 1762 5026 9009 3329 4959 
5659 727 1654 5148 4641 2672 4829 7171 15817 
1539 15658 15414 14681 8091 10250 11586 6390 2370 
2938 678 4517 5597 10751 7379 11145 4045 5030 
3170 12487 9625 14953 11232 15875 14624 1849 6781 
5841 1506 3565 6484 5489 2620 1515 4087 272 
5421 5201 10371 11845 3260 8942 12744 5701 15431 
4953 3389 11734 7404 9479 11950 4451 72 4472 
11132 11618 4188 6988 394 5760 2208 5908 11426 
17832 5689 5387 7002 16937 7700 7424 13678 15636 
2501 3640 14481 13280 12149 10228 11612 10760 7018 
834 16210 10045 753 3028 3645 7344 10156 12308 
8154 12388 8293 12525 9646 880 9270 4621 1823 
7963 5638 12585 4542 1548 9719 10303 16962 12150 
8365 12634 2577 2510 11715 10875 16897 11442 5800 
17693 2059 13038 8699 7811 11890 14405 17737 12721 
5749 6020 2857 4206 6684 10263 8427 11190 9410 
8226 11755 10794 4884 602 286 5958 9916 10480 
8895 7049 10721 11882 13107 7281 12094 16422 11000 
10311 1403 16333 11511 15690 11739 9044 12381 9145 
15152 17256 3927 2486 2296 16093 7955 10315 12834 
8532 7104 8135 7867 10974 4875 2429 11735 12667 
1032 7834 1588 6299 14619 7956 1759 6243 9873 
4537 9938 2432 7690 11844 136 103 12350 12174 
7083 17246 10771 4112 7407 11928 4378 14144 9896 
554 5948 3059 1888 5018 2440 13822 4857 14935 
16260 3393 5869 9635 14714 7935 482 11519 3760 
3422 5270 13169 13596 6155 7101 11011 5829 12140 
10830 67 3078 11369 8366 12512 2675 15450 12078 
12043 3192 857 2662 2014 5304 4284 10052 15308 
14052 5931 4759 12345 2062 8021 4655 2092 8525 
5064 4454 10347 15410 7005 17769 9472 7334 6316 
2141 4957 11326 9463 7596 7305 1124 2146 8605 
4698 353 654 4010 7691 2211 11614 12054 15471 
14975 8162 8778 6503 6583 4840 17687 10786 471 
3963 4238 9428 5898 4447 1671 5431 13151 3325 
4794 4091 17061 9576 11453 17397 8284 2940 967 
1638 3418 2242 10179 8343 4298 1221 6678 11399 
5951 13298 15759 14638 11607 2375 307 7540 2878 
3200 3371 3184 5344 7926 3506 1184 4315 12479 
14660 13453 9366 12342 11367 4343 1219 11567 520 
6151 7290 12374 6376 8335 4941 15621 7055 15865 
8068 12767 2763 6903 2498 4879 210 9238 5436 
8473 3784 3068 2640 5678 2587 5091 8013 16610 
12203 11332 6633 4512 565 1592 8630 3864 1626 
212 10759 5360 3263 11458 14272 12931 14303 9839 
2115 3218 5208 9562 9266 5247 12183 22 397 
1632 7230 11488 15064 5976 115 3190 6383 3638 
1793 4755 2193 12671 5271 3639 6993 10756 862 
8288 9533 4701 494 6340 6946 1432 802 5669 
7551 14338 5596 11420 10175 10191 1979 16034 15379 
4975 1729 1934 10312 10620 12584 16829 16928 2756 