# vtk DataFile Version 5.1
Generated by LIGGGHTS
ASCII
DATASET POLYDATA
POINTS 17850 float
-0.00155807 -0.0288031 0.0019167 0.00077295 -0.0293884 0.00233693 0.00293959 -0.0292571 0.00247649 
0.0107129 -0.0273859 0.00268116 -0.0118981 -0.0224331 0.00163392 -0.00462249 -0.0186468 0.00221783 
-0.00582673 -0.0182346 0.00252073 -0.0139637 -0.0147305 0.00156584 -0.0112037 -0.0154374 0.00218899 
-0.00693927 -0.0153652 0.00243216 -0.0102527 -0.0139244 0.00205662 -0.00649561 -0.0127045 0.0020527 
-0.0252982 -0.00594275 0.00176011 -0.00535008 -0.00354677 0.00202703 -0.00954936 -0.00176015 0.00216141 
-0.00917345 -0.000515207 0.00258161 -0.00438893 -0.00111538 0.00236923 -0.00726518 0.000520091 0.0030602 
7.39712e-05 0.00056807 0.00214411 -0.002808 0.00290032 0.00280994 -0.00918503 0.00289602 0.00247549 
-0.00782808 0.0028218 0.00243332 -0.0292258 0.00158528 0.0020755 -0.00950187 0.00489741 0.00301124 
0.00144375 0.0040046 0.00226336 -0.00259372 0.00493062 0.0023251 -0.00175531 0.00581303 0.00220474 
0.000365571 0.00624248 0.00241586 -0.0132205 0.00688648 0.00288963 -0.00930305 0.00704313 0.00253204 
0.0212668 0.00786147 0.0023824 -0.011498 0.00820712 0.00284179 0.0202656 0.00878256 0.00249157 
-0.0124435 0.00891749 0.00276882 0.021739 0.00889584 0.00237781 0.0228061 0.00864053 0.00241846 
0.0197477 0.0105833 0.00192066 -0.00846696 0.00964422 0.00268649 -0.0152034 0.0118302 0.0029778 
-0.0112983 0.0122475 0.0024467 -0.0163422 0.0125487 0.00276183 -0.0145964 0.0127468 0.0026984 
-0.0165117 0.0137821 0.0025108 -0.0113314 0.0145023 0.00260425 -0.0156118 0.0163342 0.00257042 
-0.0146237 0.0171146 0.00261149 -0.0131403 0.0159833 0.00286201 -0.00748793 0.0178949 0.00314322 
-0.00322887 0.0174924 0.0025297 -0.000984735 0.0174784 0.00214745 -0.0123149 0.0189462 0.00256832 
-0.00673583 0.0187897 0.00326919 -0.000325681 0.0183 0.00284803 -0.00266733 0.0205725 0.00286567 
-0.00081346 0.020914 0.00296836 0.000839072 0.0207769 0.00262788 -0.00754375 0.0203389 0.00286108 
-0.00425967 0.021326 0.00331853 -0.00195504 0.0216589 0.00315869 9.06206e-05 0.0214363 0.00300078 
0.00241934 0.0216538 0.0027088 -0.000830205 0.0219817 0.00336496 0.00143029 0.0221637 0.00277649 
-0.00490448 0.0231639 0.00337149 0.00341905 0.0233013 0.00264843 -0.00317586 0.023732 0.00315288 
-0.00700406 0.0238394 0.00274256 -0.00432903 0.0241991 0.00328004 -0.000613797 0.0249508 0.0029633 
0.000895248 0.0245221 0.00283891 -0.00261714 -0.0292513 0.00201701 0.00547799 -0.027848 0.00265048 
-0.00975116 -0.0276972 0.00198499 0.00346613 -0.0282993 0.0025644 0.00478103 -0.0270309 0.00231776 
0.00777148 -0.0283091 0.0024988 0.00964743 -0.0277745 0.0026082 0.00253022 -0.0275297 0.00263181 
0.00375567 -0.0269714 0.00251945 0.00851686 -0.0274404 0.00266133 -0.012447 -0.0262539 0.00225745 
0.00518269 -0.0257196 0.0025792 0.0111838 -0.0262429 0.00218733 0.00611271 -0.0247345 0.00232685 
0.00914336 -0.0258254 0.00268756 0.00838645 -0.0235808 0.00220214 0.0103836 -0.023836 0.00231907 
-0.00896028 -0.0230403 0.00171632 0.00165059 -0.0230405 0.00186843 0.00878252 -0.022157 0.0023831 
-0.00637276 -0.0226658 0.0016434 -0.00133701 -0.0218013 0.00184744 -0.0102182 -0.0214153 0.0017774 
-0.00727508 -0.0199679 0.00195231 -0.00591974 -0.0209215 0.00222441 -0.0022631 -0.0194868 0.00234493 
-0.00976974 -0.0196924 0.00231278 -0.00660101 -0.0188567 0.00184992 -0.00346479 -0.0192357 0.00255865 
0.0043846 -0.018354 0.00184057 0.00214185 -0.0175324 0.00214158 -0.0131483 -0.0181582 0.00160155 
-0.00490477 -0.0175252 0.00209971 -0.0117476 -0.0182188 0.00127365 0.00392385 -0.0161211 0.0016777 
-0.022405 -0.0153176 0.00113007 -0.00484534 -0.014569 0.00241278 -0.00280662 -0.0153762 0.00230923 
0.00263495 -0.0154475 0.00168144 -0.0180745 -0.0148935 0.00234852 -0.00995439 -0.0156826 0.00227757 
-0.00867247 -0.0152783 0.00239712 -0.00603487 -0.0148548 0.00196949 -0.00368824 -0.0142276 0.00220703 
-0.00776631 -0.0146402 0.00194438 -0.00180966 -0.0137546 0.00222413 0.00450143 -0.0141951 0.00152528 
-0.0108114 -0.0128611 0.00187277 -0.00853772 -0.0132344 0.00234176 -0.0043997 -0.0132044 0.00192402 
-0.000993867 -0.0122873 0.00199498 -0.0137939 -0.0122911 0.00185427 -0.00388727 -0.0112877 0.00185718 
0.00634639 -0.0130015 0.0029276 -0.0170087 -0.0115201 0.00199209 0.00116448 -0.00625989 0.00204282 
-0.0255058 -0.00608986 0.00312338 -0.0104581 -0.00579786 0.00219825 -0.0206623 -0.0062674 0.00182926 
-0.0213067 -0.00459708 0.00197466 -0.00999386 -0.00366687 0.00218127 -0.00741153 -0.00383864 0.0020392 
-0.00827941 -0.00305569 0.00215702 -0.00697789 -0.00176088 0.00221923 -0.0060611 -0.00230285 0.00246654 
-0.0226044 -0.00103683 0.00184158 -0.0127862 -0.000460664 0.00246622 -0.0102287 -0.000989465 0.0025018 
-0.00822473 2.16409e-05 0.00260877 -0.026067 -0.00120299 0.00136909 -0.010851 -0.000107013 0.00267757 
-0.00614998 0.000353874 0.00277715 -0.0116865 0.00058537 0.00249931 -0.0258194 0.00052595 0.00138884 
-0.00915309 0.00170854 0.0023936 -0.00768976 0.00163383 0.00274935 -0.0151946 0.00163397 0.0020894 
-0.00475053 0.00220012 0.00276216 -0.00351576 0.00185364 0.00275455 -0.00136172 0.00254202 0.00261755 
0.00237796 0.00102688 0.00171524 -0.0144487 0.00263716 0.00241541 -0.0112672 0.00289504 0.00260614 
0.00127598 0.00164197 0.00245621 -0.0130356 0.00423654 0.00235401 -0.00129939 0.00388291 0.00242802 
-0.0116994 0.00401155 0.0025 -0.0270032 0.00399891 0.00192913 -0.0140624 0.00489169 0.00274606 
-0.000439051 0.00520182 0.00232033 0.0228998 0.0041179 0.00195896 -0.0291867 0.00319253 0.00262666 
-0.0123667 0.00604387 0.00283563 -0.00533447 0.00613348 0.00230601 0.00153694 0.00596393 0.0023558 
0.0187569 0.00718494 0.00218933 0.0211157 0.00557741 0.0021624 -0.00804005 0.00653024 0.00252374 
-0.00437127 0.00674644 0.0025222 -0.0015349 0.00721083 0.00220953 0.00325092 0.00702123 0.00191792 
0.0202774 0.00695547 0.00235635 0.0212293 0.0067274 0.00202087 0.022782 0.00617687 0.00261165 
0.0250696 0.00524407 0.00211578 -0.0286714 0.00650082 0.00177432 -0.0281649 0.00747384 0.0019931 
-0.0144157 0.00665561 0.00260619 -0.0124812 0.00770628 0.00310795 -0.027067 0.00905128 0.00172343 
-0.0163931 0.00872994 0.00242603 -0.01528 0.00816219 0.00261922 -0.000610673 0.00809035 0.00213745 
0.0187487 0.00906026 0.00235315 0.0239578 0.0092636 0.00235307 -0.0146323 0.00917236 0.00314876 
-0.0140529 0.00805492 0.00267558 0.00152604 0.00947755 0.00175958 -0.0135657 0.0091783 0.00284386 
-0.0117753 0.0099854 0.00327123 -0.0100909 0.00955224 0.00254908 -0.00639992 0.0100092 0.00234662 
0.0209897 0.00969618 0.0026454 0.0220705 0.00993765 0.00242509 0.0253626 0.00994263 0.00264859 
-0.0158739 0.0108667 0.002806 -0.0149082 0.0102002 0.00262047 -0.0141848 0.0117342 0.00245665 
-0.0116203 0.0111339 0.0028109 -0.0108057 0.0103259 0.00277385 -0.00944835 0.0106342 0.00264241 
0.0176347 0.0112895 0.00224417 -0.0168348 0.0114764 0.00280175 -0.0122511 0.0120791 0.00309059 
0.0167686 0.0123291 0.0024403 0.0203254 0.0124576 0.00195985 -0.00764129 0.01175 0.00227673 
-0.0175393 0.0132438 0.00243593 -0.0157366 0.013381 0.00335007 -0.0131846 0.0134408 0.00316297 
-0.0120689 0.0133087 0.00287026 -0.0109871 0.0131846 0.00294124 -0.0158578 0.0146851 0.00259747 
-0.0125992 0.0143707 0.00277256 -0.017386 0.0160878 0.00239147 -0.0148396 0.0151238 0.00263417 
-0.0137796 0.0147944 0.00266259 -0.00810839 0.0152021 0.00257014 -0.00964794 0.0160114 0.00282004 
-0.0168057 0.017031 0.00217956 -0.0108846 0.016893 0.00299572 -0.00970141 0.0171054 0.00291936 
-0.00503064 0.0163899 0.0027901 0.00383777 0.0164775 0.00182013 -0.0158365 0.0176913 0.00249164 
-0.0121955 0.0169173 0.00292107 -0.00840568 0.0171393 0.0029236 -0.00439575 0.0173044 0.00262354 
-0.00852872 0.0184818 0.00334867 -0.0134484 0.018965 0.00264354 -0.0109186 0.0190157 0.002865 
-0.00977362 0.0191691 0.00271767 0.000388061 0.0169421 0.00256073 -0.00770346 0.0192664 0.00310218 
-0.00534299 0.019519 0.00301874 -0.0022895 0.0194299 0.00296475 0.00511633 0.0193595 0.00220682 
-0.00641142 0.0199924 0.00320605 -0.00408499 0.0194952 0.0031209 -0.000714372 0.0197129 0.00271211 
0.00117346 0.0197429 0.00279971 0.00235068 0.0197503 0.00251636 0.00388687 0.0194457 0.00207139 
-0.0105264 0.0200117 0.00248433 -0.00576168 0.020975 0.00332614 0.00511084 0.021073 0.00231012 
-0.0121726 0.0211257 0.00269257 -0.00641312 0.0217767 0.00290854 -0.00316524 0.0216125 0.00304829 
0.00103122 0.0215412 0.00363664 0.00351154 0.0214156 0.00260468 -0.00522998 0.02198 0.00325615 
-0.00201141 0.0228647 0.00290538 0.000331417 0.0223991 0.00337505 0.00521694 0.0226605 0.00229855 
0.00634257 0.023192 0.00207517 -0.00836125 0.0223541 0.00301195 -0.00727852 0.0225986 0.00281441 
-0.00597811 0.0228289 0.0033013 -0.00378629 0.022605 0.00311965 -0.000143047 0.0236348 0.00265982 
0.000998359 0.0232423 0.00281745 0.00545707 0.0238263 0.00271152 -0.00207919 0.0247294 0.00302803 
-0.00122365 0.0240115 0.00283684 -0.00970774 0.0246125 0.00293588 -0.00818888 0.0246527 0.00295041 
-0.00611733 0.0256424 0.0030592 0.000398552 0.0257563 0.00260446 -0.00838979 0.0262592 0.00247788 
-0.00605878 0.0277554 0.00306342 -0.00568314 0.0288903 0.00308216 -0.00370717 -0.0289953 0.0021411 
0.00106057 -0.0293272 0.0037769 0.00194617 -0.0293026 0.00290724 0.00470129 -0.0287253 0.00266874 
-0.00454869 -0.0278959 0.00190511 -0.000158552 -0.0285859 0.00240445 0.00123956 -0.0283509 0.00283544 
0.00644403 -0.0284645 0.00279845 -0.0111368 -0.027254 0.00210337 -0.00826342 -0.027732 0.00222302 
-0.00647959 -0.0275446 0.00168552 -0.00516128 -0.0269419 0.00188932 -0.00175623 -0.0275723 0.00218154 
-0.0100073 -0.0263863 0.00196256 -0.000657059 -0.0267422 0.00236038 0.00023213 -0.0257173 0.00227217 
0.00442244 -0.0268756 0.00339323 0.00681922 -0.0261058 0.00246386 0.0116713 -0.0268695 0.00311989 
-0.000946724 -0.0254179 0.00222587 0.00372336 -0.025794 0.00221928 0.00784369 -0.0258367 0.00297142 
0.0102874 -0.02646 0.00313135 0.0126431 -0.0262488 0.00229775 -0.0129755 -0.0246712 0.00251926 
[...]
POINT_DATA 17850
FIELD FieldData 6
id 1 17850 int
6623 8356 6315 11306 5274 11820 15462 10389 7314 
12521 16130 10573 11617 16403 4676 17349 14654 17269 
2899 13035 5977 15672 5527 6644 4742 2985 14962 
2452 4953 6812 7849 2325 2230 7324 4943 663 
17704 15280 4254 5478 13451 13850 17034 5828 15219 
5654 119 12818 213 16127 10657 8986 15387 7538 
17830 16261 715 1100 14533 17273 8022 1595 5594 
6037 7475 1046 12865 12952 14170 203 3196 4280 
11113 8472 6662 9114 2163 13340 12252 16602 110 
8762 3391 8765 13240 10316 6361 12208 17745 7945 
3047 5499 11080 14635 4538 13262 10697 16268 9090 
6241 12001 17113 10498 12481 13455 10814 937 7630 
10658 10030 595 16057 11963 1395 15760 5604 5462 
9069 17151 6584 6323 17722 38 12566 16765 6094 
4539 16530 15915 7011 2292 11762 5226 6317 17223 
10272 6238 12122 17568 6852 17413 10137 546 5798 
13664 13373 17093 13038 1794 12840 6728 11776 2758 
15201 15149 4888 8622 17835 11163 9565 11159 582 
14154 12994 10014 5789 825 1652 11643 9205 3380 
6723 16919 10073 2800 16435 16281 10937 15940 10638 
16891 1560 9022 13964 4751 4003 12966 6445 4426 
7929 3188 14961 125 11447 16478 4010 5926 11757 
13238 17758 17687 13737 14225 12762 17801 17444 14911 
11977 4030 1715 11322 10350 8120 3383 16275 16698 
8269 180 9520 6703 12829 15879 8894 6360 13170 
10094 17186 3549 148 7526 7290 3675 4415 11602 
7067 2904 14039 4983 4561 2491 10330 17305 11727 
12617 5790 13920 781 7707 847 13492 827 3912 
5918 15741 11073 15135 14111 10166 9362 5338 2117 
10421 13521 8041 15831 9798 9127 266 11248 5135 
9159 6067 524 2786 12765 697 9223 7156 9490 
1329 12004 9982 14980 12755 16336 2015 1242 7117 
10216 8790 1307 450 11022 8594 4782 13936 322 
6900 1194 3363 6272 1852 11204 3222 4048 5986 
7743 1447 11716 6919 3288 15056 265 17092 7781 
16856 10582 4862 7246 16058 16469 10417 13965 2759 
14496 10886 13108 15941 15891 13849 1890 4568 11613 
11556 3825 14898 16923 11673 2936 10358 211 9680 
7082 5288 17654 6416 2659 14860 2549 316 10499 
12051 14737 175 10676 3559 13973 2005 12916 13865 
9661 8706 3926 10442 10097 7046 222 10452 4273 
6530 15543 12558 7786 3074 13487 17131 14883 8526 
1224 4559 15011 6928 5645 12234 17492 5895 5936 
16662 6456 11518 16729 2760 3752 12543 1726 10567 
10572 7403 2169 12945 12771 9045 6012 11671 13419 
2532 4604 11904 11951 725 17178 10729 17625 12709 
11861 13463 8797 15590 11589 7402 12476 16224 6609 
11061 15811 8878 6539 8179 14544 14149 9687 5646 
10483 8446 481 14407 16616 9200 10612 9370 8633 
12935 7170 11732 4475 11863 15658 14963 2839 4842 
914 10066 9493 10132 14752 4986 5804 4829 6798 
15429 14937 5727 13626 8281 9859 12516 10553 2433 
14187 5391 11419 12086 12967 4906 11253 4959 7364 
2987 8252 13475 6345 7697 6892 9592 7032 13209 
12189 12711 10960 8955 7137 9594 16832 13359 10023 
10706 12496 16935 15637 3425 13392 3356 344 4250 
2051 9466 8077 10620 16757 6143 274 7261 5188 
7260 7506 16349 10664 11436 4621 6531 15826 5388 
3361 7155 8800 13144 7642 2188 1856 14480 8264 
6126 4483 7313 7799 6791 12819 11802 2601 9831 
10725 4443 2833 15232 9373 1362 2217 10515 12507 
277 7486 11430 16820 5974 16115 4290 14538 16529 
17727 7570 17363 9017 9770 10976 12119 17361 9985 
13298 9762 12835 10219 3679 15648 3373 9509 4350 
9557 16005 9669 15967 10776 2013 8278 16549 12477 
13185 12225 8113 7471 14653 7040 7654 10639 14330 
1775 9996 14290 17733 4994 15166 11577 1882 13717 
13522 5122 3073 9609 7355 13525 11608 8884 15656 
17731 10297 14093 14 7020 6142 10384 12487 1930 
12812 10712 13130 1241 7720 5989 14038 15757 6458 
1622 318 13484 7365 16335 11140 4755 1629 12475 
11437 11180 8359 1210 11109 4256 17199 6855 8144 
11832 7072 8926 6918 3184 3053 9321 6335 4521 
1150 15215 2727 12782 11756 16865 8623 3598 14336 
6157 2041 5095 1616 2609 11551 12375 12013 3665 
16543 13902 1519 4574 14803 9319 7006 7754 3167 
12948 14925 13534 4718 2067 17068 16838 14944 10986 
14917 3210 6525 3574 636 3132 313 15805 9457 
4733 3267 10585 4349 9463 12462 1754 8089 7064 
17136 5217 14421 1902 5592 3740 9601 7647 348 
10181 8163 6748 15157 12024 17795 500 5332 7554 
3224 12773 3866 9328 16880 6337 8544 8943 1821 
16459 11944 666 4910 10457 3023 4278 12458 2113 
1589 16734 5947 10020 6899 11628 1485 6741 7829 
16468 12559 1070 13051 2431 1132 2234 706 9475 
7660 2378 8417 7300 1091 2883 10908 11907 11372 
1251 15785 9740 11822 5500 5235 8585 13751 11824 
13306 10860 4786 3428 6357 6840 8921 1137 11747 
17080 166 15901 10361 15193 3579 4633 12168 15928 
12488 6914 12005 8561 1805 13772 383 13156 13516 
17779 5364 10856 13079 9858 3048 4780 942 6901 
411 1489 3309 16198 8310 1804 13769 1043 11543 
17352 14565 8300 13507 13302 2503 16655 8584 9550 
17481 4417 11411 13353 9467 7866 13666 15649 10660 
8512 7034 11665 11831 10095 637 12528 8206 13661 
1887 2055 9887 16594 2261 12851 12378 12556 9091 
7272 12491 8046 2789 17735 15770 1076 4666 8521 
163 1546 7463 6205 168 7268 9190 4807 1441 
16860 15813 3194 15172 16193 1380 6843 12327 9283 
13470 3143 15927 16940 15311 13901 14877 17206 8134 
12942 891 8342 16278 7771 7789 10795 6669 13523 
7520 1220 12665 13036 16447 4795 4965 11371 873 
14156 8222 4025 2915 11502 3714 12042 1870 9607 
14317 8101 10698 4877 5508 15953 13326 13852 12478 
15465 10401 10134 3892 16629 11096 5612 7872 7912 
9703 12242 6396 14019 9446 10507 8246 4320 7958 
17182 8937 15980 2652 13494 812 3460 17197 1203 
4338 14614 12919 11035 2441 5578 1563 12239 8829 
7363 7462 11428 1830 2501 9142 15200 4219 13709 
2948 16079 11847 16289 6080 16019 17267 5475 12386 
16818 7347 13085 340 16389 718 3952 1244 2460 
1773 1112 1494 2310 16317 2138 17237 14186 4864 
7377 7995 15173 9026 14299 9784 17593 14092 6054 
1912 7119 2461 4572 3402 4537 14455 11294 13166 
15299 4770 10525 15572 4114 1879 15023 16753 14388 
15736 15802 4041 6285 13274 11933 11206 12125 10977 
13317 15843 8582 1080 16822 15013 15155 9061 9879 
11000 14906 3775 16890 8826 15419 16277 6572 1066 
10833 6082 2002 14473 11742 5988 10412 3486 15312 
5000 9144 2260 8542 16040 16276 7408 15958 3538 
9111 8805 10118 6240 3633 11817 1349 16161 7578 
16495 4895 5705 195 12499 2646 13509 5430 5438 
15272 17172 17264 17094 2255 8603 13411 14344 9521 
9641 13095 17066 5473 13824 15641 16374 1381 9894 
10419 14758 16948 17844 13429 342 5567 9486 14500 
2600 15781 9204 14233 4313 1372 14272 15234 11531 
14555 12420 7221 11622 3726 16751 4287 4923 15513 
13452 16237 6181 8339 10243 12479 1239 11498 17501 
12240 6494 15680 14959 5957 10429 15842 10662 8023 
17848 3611 9701 15827 12417 13733 3366 14279 16494 
11840 5485 9920 809 952 13549 12569 15784 14213 
14369 2748 15148 4975 16101 3790 15592 6547 456 
11670 2949 1826 4617 9647 14820 9935 17455 10615 
16173 16945 11142 16148 6118 9203 10239 875 17023 
13693 15392 13428 4259 15316 9714 17589 11649 14054 
17511 3066 10405 17033 14858 17841 13384 5346 17265 
9529 11839 17473 13506 6973 12634 3225 221 13232 
14537 14353 15702 241 2562 2909 6793 5779 17410 
12980 16863 11675 458 15368 15127 6605 12546 10008 
13380 4138 13688 2400 16049 2986 10348 15288 7800 
2353 15755 482 7770 17797 15059 6175 5334 14361 
6677 8946 10407 15446 11112 14731 9590 12756 9498 
12105 12081 13379 4176 1857 1422 2829 6731 6870 
3666 9605 9500 6095 14874 17495 11939 436 13296 
15914 13719 14148 10527 1426 14552 6540 15147 6902 
15214 1875 2435 1983 16692 3703 11780 11868 5831 
7123 15045 17126 12730 5906 9241 13691 9591 9589 
16541 10472 15801 10484 2947 15078 3652 8806 2983 
13237 13669 4531 6504 9818 3556 268 16020 2821 
14029 14059 5404 4486 11644 1184 14466 10362 9673 
2756 17590 16908 14105 12775 7637 15341 5591 4132 
1570 9234 15733 11394 10449 14371 8745 7510 7687 
2066 7237 2080 3928 1684 4865 1013 12232 10928 
14260 12600 16766 7505 2905 13281 55 14474 17672 
471 15259 2331 10636 8596 3376 2291 11044 3347 
9161 9877 5777 3274 12917 12370 8106 4911 12135 
2816 16499 400 16055 14777 3459 3218 10869 4946 
10716 2770 9956 9934 6394 1609 9588 12416 5710 
2644 16806 10785 98 567 13562 2361 5878 6752 
17407 14401 13768 15921 1625 1193 5020 2468 3741 
4182 14802 157 9057 32 5098 17220 267 10210 
6454 7391 3217 2210 10804 8304 2081 5755 4616 
11384 15120 9691 9287 3697 3200 12134 494 4236 
8299 352 7760 1166 5614 7135 6254 16136 5818 
8545 14151 1096 13045 7329 1844 5668 5775 14642 
7845 6987 8883 2890 8160 3296 12731 2545 15754 
5031 4591 15109 6442 8439 16125 881 11152 1164 
16677 10032 8028 5048 13139 1064 6410 4650 7828 
17432 11137 1354 6021 2418 2623 12542 11031 7400 
11435 10511 15460 8065 3875 5923 8145 14884 181 
2300 13033 12713 15583 15049 1056 8026 11701 9891 
14012 14414 11249 6524 59 2615 14582 2716 11144 
16427 4809 6762 13775 6939 4793 2575 3876 11127 
3099 7668 3369 11402 8172 10245 8423 11700 5224 
15007 10718 10568 1673 13978 14982 459 6475 2269 
4215 7198 11218 6804 13673 10435 13077 6027 4672 
8363 4183 10991 2952 13825 2397 15828 7095 16266 
9725 975 16295 15669 8349 9443 12854 7100 9056 
16439 15858 14658 10050 2386 4887 6778 12695 13133 
14432 14863 10100 8537 17045 10614 7534 14868 16534 
457 2720 14914 3364 17244 12843 2000 15365 13367 
9842 1346 10251 5978 7013 14119 10400 8996 14819 
16279 11008 2861 11450 5408 16396 15439 13871 226 
4253 8416 5006 8902 7432 15282 5053 16640 14943 
3424 7450 8714 8715 11423 6261 2613 15898 8498 
5969 13273 8892 1324 4767 621 12856 10987 12012 
9947 13640 1435 13842 1913 1985 8273 13386 4792 
12045 12821 10083 12376 10173 7987 16426 14564 11299 
9765 10656 5127 12355 14082 2150 11851 6995 8142 
9924 7623 1480 11619 1478 12939 9331 6014 11375 
11873 5546 12130 7836 12545 14399 143 15987 10079 
9921 3786 7606 11645 5736 7235 17012 15424 14020 
3984 9089 17323 8982 15961 16872 9130 11672 10501 
6908 7765 4381 5574 3813 16749 9286 16484 869 
9485 7978 7876 3308 14471 9822 16438 7341 15285 
16496 17786 12047 10256 7907 11612 3463 2384 539 
12580 2849 15969 594 6341 11242 3405 13244 904 
7301 418 1459 10151 9700 16367 10248 17750 13742 
3881 3767 17366 16311 4588 5128 5754 7513 11364 
1915 16370 7485 12282 16676 4629 4661 7058 15029 
14214 3147 945 1276 3870 8130 8979 9133 3333 
1953 5317 13958 12860 14124 8777 3344 13175 533 
13267 5295 10487 12642 641 2134 8546 3108 2382 
5446 11936 12857 7574 13498 11647 5219 15722 6150 
14129 12040 12244 7701 7502 6188 2362 6153 9747 
15225 16649 2059 17194 13152 8381 14757 11074 11972 
6004 8097 7466 12866 5267 14398 4519 10721 4098 
3118 5615 2488 9002 1074 12780 3180 16449 6965 
17401 8961 3743 16845 16035 14733 14464 13148 1888 
6705 13937 13505 16422 9125 12293 3896 883 5426 
8436 10652 10104 11946 14481 3178 2540 2477 13748 
13420 8177 11838 5390 11184 16581 6016 16160 11890 
15579 7936 2337 9503 9867 17030 17187 9893 7069 
15876 15744 4818 16461 14708 6420 3447 12175 8006 
11439 7952 14239 17601 9785 13644 14347 16617 8843 
6990 5932 3353 4078 3478 3854 8872 1036 15506 
13004 16412 9959 16900 13889 13670 14034 16357 753 
6776 10212 11629 3229 16516 14879 14014 14739 12433 
14590 8716 8469 3529 11758 1515 12764 14391 3839 
12493 13773 2815 13837 3778 8785 17609 7926 17846 
15692 16524 7172 15938 2266 15973 10771 2974 7345 
10093 307 4970 17693 4765 9369 3462 11346 11024 
8856 10007 17688 15594 8173 8525 16350 10328 3278 
15957 6407 11587 987 7217 3260 7525 8591 1123 
1583 15431 14699 17617 17480 12993 2167 71 12893 
3303 15248 5368 10060 15719 408 9313 8226 9843 
16465 1465 1536 4018 17691 7821 13073 15042 4017 
3292 16905 16386 13675 4164 292 1172 12334 10273 
13440 12922 15453 6986 4969 5759 17510 11056 13907 
5321 14786 6935 3578 1499 12016 8085 1320 14691 
14499 7758 6045 5326 13131 2308 8087 4762 1449 
17662 10846 6338 910 7162 13479 16464 341 11293 
12251 2486 15468 855 8605 9527 14386 762 11989 
16705 2955 16831 677 489 6246 17076 3918 4884 
3077 8182 1848 17663 2085 7848 1228 11894 7713 
17300 9378 7577 15381 2870 6932 9366 746 207 
2577 5785 13132 10890 12763 6091 16197 7677 4840 
14888 10759 5431 56 2391 4805 17498 10440 7693 
114 10460 7154 7041 225 5865 12849 17819 10797 
9062 14355 8042 17098 12839 6831 2311 14008 12883 
15025 2254 1199 10112 10537 2565 14796 13476 17489 
7584 16003 15314 12614 14892 7059 17418 15984 16196 
100 17015 4128 336 922 9416 8610 11150 9162 
16423 9715 8759 2142 5600 13651 7149 660 1145 
15318 4585 6546 12441 2294 14095 15983 16987 6235 
10360 12626 11630 412 8408 2303 9584 10372 17721 
3412 12664 3766 9154 12038 17336 14438 422 16140 
14984 5724 11251 12069 12080 14448 15295 2792 14792 
14195 4908 11557 4360 10799 7871 12307 6722 14814 
9020 11710 16931 13405 15413 17339 1146 14521 13347 
3508 17777 5384 16113 9915 6073 15651 11103 14348 
16251 13063 12871 17769 398 8343 13969 1487 6086 
16690 1867 12748 14773 1474 1029 13401 9955 9028 
17268 369 17101 6763 210 9465 2410 10627 8186 
12864 11157 1369 14410 10189 2258 7902 4814 10680 
3934 11019 10373 15545 14041 7752 14742 2185 5054 
10521 15850 1827 330 15074 523 9517 17099 6468 
6152 16348 3017 410 8636 15129 14524 3906 6133 
10523 16141 4774 5576 12513 13279 8678 16971 9919 
14137 3894 13662 12492 6785 14939 16190 13404 8056 
1846 11412 8618 13520 16061 4137 3921 8734 5620 
13712 9450 9606 9050 13613 15753 16652 15014 10506 
6823 7930 6009 14997 2878 5543 10505 17109 10566 
8347 15006 15435 9413 262 10964 15532 6347 8323 
2135 11713 964 15604 13608 1878 14791 13236 8920 
5953 6558 2655 3890 12294 3275 12527 13052 4100 
10972 9262 1453 5680 10206 862 10554 10217 1658 
741 10171 2369 1568 10836 6414 11420 14587 3195 
16239 189 9293 12882 4651 2352 5369 13982 14677 
16010 5603 12956 5800 8823 12712 15254 2823 39 
10133 13145 5004 2559 5213 2277 6268 8459 11193 
11347 7509 10552 3654 9888 11010 16942 4832 1788 
8741 6500 4173 6280 5719 4567 9905 16786 2697 
3404 14844 4119 949 12325 909 8239 15328 2121 
2801 6631 8951 9243 6618 17312 9298 14857 9235 
8156 1265 6896 8748 5407 12437 5664 182 9840 
2314 13971 17842 9763 1532 15302 7683 9524 8141 
6591 8202 5200 1843 17834 2550 2199 1623 6251 
7428 12217 11793 8158 1483 11126 7527 12022 10548 
10866 3787 10879 3898 6545 1666 2153 11584 1590 
7884 12955 2965 2251 13976 16623 3931 8904 6727 
4659 17318 17805 14717 5746 5209 5805 16625 7351 
1502 7461 12127 3868 4507 6292 1933 3311 11477 
1800 7696 3419 14153 8200 14915 9912 2957 11348 
10790 4438 9236 16771 13176 962 11360 7103 16790 
4526 10735 15143 11043 9173 8463 1498 12026 14032 
12846 6640 1877 5340 15778 13665 291 11499 3215 
13263 2060 3151 7014 6018 10744 14282 7433 2289 
9333 6945 6431 17122 11652 17248 11516 3104 14392 
11698 2040 7271 13112 11634 11812 15610 15300 10670 
8615 1413 17370 1321 3569 10164 7299 441 5539 
3982 126 6839 15400 12326 7236 3692 65 15104 
9931 10446 3844 17177 9258 6869 6288 15732 11574 
13305 9380 15359 2537 11677 16525 10669 3467 17577 
8105 7670 15203 9232 3457 12832 8950 1470 9233 
16560 12035 2891 7150 9323 10454 15343 9251 10954 
515 14472 12061 12706 2214 5695 5824 4470 11853 
14550 165 16259 5492 7724 14477 13275 5954 14128 
5134 14177 17275 10867 5856 7470 15083 8837 14873 
8377 7338 14920 15342 12056 13103 10424 6571 9801 
435 10816 12904 14551 12197 7239 14346 8316 10834 
339 14548 90 13087 6789 12207 887 3201 2412 
14258 6056 15189 9320 8164 6255 749 10951 16096 
17701 13788 8755 10016 10138 990 14016 17298 15929 
12011 2968 6998 16112 14940 17614 14952 15077 9046 
939 9038 5855 9753 2097 9665 10246 2259 10346 
15966 5980 12019 17402 17226 17210 6432 17794 9297 
3955 17755 10766 4648 3756 5212 7911 7908 10549 
13667 8064 5379 5544 15325 2664 16146 14760 14762 
5847 3747 17738 11696 11640 10700 8047 12345 11147 
7842 6405 1739 1738 10028 10604 10414 15414 11807 
4730 5907 6714 11324 16409 8971 5470 7028 3226 
717 17468 17027 11705 1083 5725 11561 14615 7533 
1766 3683 819 1414 11208 3919 9221 7634 15521 
13199 5138 13210 15432 8518 16379 15206 1240 17723 
13702 12946 8004 17313 3065 16022 4226 16028 9942 
16485 8658 13727 9567 5851 12502 8333 45 11264 
14848 7003 416 11025 290 9526 10114 11725 5555 
15391 234 12453 16273 16704 16322 10690 15358 8073 
10101 12037 11078 16306 9836 15887 5964 1510 17603 
13335 14203 4707 8836 2039 14624 5256 10583 4836 
17558 14255 5026 3973 17608 7195 13217 17806 4449 
8511 122 11434 2048 7880 2077 4748 9342 14510 
10876 14938 15433 11194 16532 11905 16827 10805 17337 
2638 12179 2775 2428 7136 15113 2340 14900 3082 
7740 11953 11011 16462 11856 7580 14120 4109 6217 
15992 8685 17700 13403 5752 11480 674 11588 14778 
16013 3878 362 1545 17338 1169 10760 13863 384 
17622 13767 14816 4670 9778 2619 10341 11882 14234 
9538 12356 7596 2787 16245 6020 12743 13652 10300 
4397 12761 15555 5454 15154 5406 16213 8913 15307 
1235 7173 16741 17817 4611 15043 15377 4936 10158 
4304 17173 11091 14485 12371 6786 16559 10091 11520 
6875 15229 10752 17770 11726 3079 16752 14332 4146 
8728 169 6979 5937 8217 16441 7798 17705 5945 
9063 6806 17843 11980 4939 1853 926 1081 2776 
4592 10455 11956 5701 1106 10914 11960 6239 1188 
9726 11492 8534 4439 12957 14507 17047 3827 8625 
15334 3157 10985 9819 12924 13913 16430 12290 12791 
141 7890 11513 3685 13397 15255 10971 11676 7129 
9171 2632 3516 13713 9838 17263 6535 4849 10543 
15688 5886 10254 13284 13558 6131 1969 10738 1152 
17653 5898 9149 12377 7763 7208 12235 11211 10746 
1071 5165 10179 11511 14238 17776 9041 14809 4407 
13616 6698 6961 7934 6598 15864 11880 10136 3716 
4086 9085 5258 13537 6245 3230 14261 2299 8909 
3565 6832 2922 2541 2729 6258 4174 11367 1779 
12789 8153 589 12057 4922 1837 15745 3542 3974 
9139 8923 4006 8013 4856 3518 7318 13504 10371 
1218 11060 14060 7573 11913 8991 11320 5281 7886 
10518 6701 7029 880 13502 3817 7566 5998 7881 
1110 3277 2268 6375 7440 13761 4698 16260 2233 
1517 10782 14333 470 13681 7012 11390 17632 7568 
9472 1471 5970 560 9636 373 10395 4195 1431 
11999 5452 520 16511 7415 7192 12398 201 7691 
3128 7080 3557 5579 13461 4813 12735 3431 15614 
17437 9675 2898 16183 16538 1050 854 14364 3650 
16470 325 9019 11149 212 15275 16327 9507 13992 
4978 12509 5180 12741 8527 11661 15241 7323 9650 
7610 2375 12473 7390 14812 4140 6570 14514 13756 
2146 4930 9196 14342 9015 7657 9528 12306 8470 
8475 4111 12708 10329 4049 5178 576 792 10508 
12953 8228 8804 17203 16851 2084 16660 9478 7066 
9704 8918 11244 11026 3815 4052 10774 15947 5535 
4796 4984 17827 7519 4790 1476 7818 12954 16002 
478 12991 3037 11657 2896 5119 9918 9796 16247 
12196 8669 10768 13815 1387 8002 7333 4914 13758 
7742 17477 15027 15769 13647 4680 10605 17262 14470 
1644 1181 14665 5012 10611 16724 11161 17087 13483 
14276 17466 186 3673 10465 2342 16503 10002 11134 
15336 11985 5252 14518 13545 3631 5536 9059 688 
10810 9828 1859 94 11680 15237 7224 13592 7178 
17097 16455 13215 7613 17150 1090 2593 532 12901 
314 10092 11449 9848 12367 8833 12369 12060 14070 
4607 8968 2643 15010 14318 4321 7205 14217 12316 
9562 17485 2 16417 4134 8471 2779 14680 16725 
11607 3135 2874 2440 9206 13220 5689 10312 6813 
12607 1883 15217 17179 16308 7456 13214 12142 17454 
8993 8261 4264 3698 17810 8936 7043 10146 4343 
9844 16340 579 12684 4364 723 7327 8694 15746 
2763 4918 5732 14782 1612 7626 9600 9878 15067 
4634 8817 1771 5644 16713 13241 12161 6467 12797 
4396 13016 14320 13934 11307 3977 5471 13442 635 
8297 3119 16572 10326 17585 16128 2438 10208 14756 
9596 13596 5360 13023 7833 5066 6642 14440 17439 
3483 2557 8380 3345 5220 1904 16080 17270 15182 
14536 16296 13053 8067 14727 958 12813 16476 2203 
14395 15366 8981 3434 9953 5373 2180 11098 1998 
917 7118 17276 12540 337 13831 7782 756 7530 
2469 8050 5245 23 16099 9936 64 16842 9488 
1996 3660 15909 465 12778 14645 11719 726 15382 
6991 17649 1116 12162 3563 14692 12349 9265 6066 
6801 7806 1113 826 16600 12751 6485 1067 4749 
12305 8329 3044 11012 16012 6099 547 10188 17642 
13740 3613 4158 7576 11416 4322 568 10129 6124 
14062 8235 17576 8350 9065 13413 11017 10366 14674 
4058 17572 2064 13253 15585 2764 3126 795 8863 
6259 6679 8601 5916 3064 6766 1793 17188 10065 
4789 1702 916 6624 17681 639 8327 11350 15833 
1334 1976 4389 13722 17674 9425 9760 4579 4143 
289 13025 5971 10900 8169 5264 1300 1787 6493 
12247 3096 244 3784 4072 3185 2982 2913 1160 