# vtk DataFile Version 5.1
Generated by LIGGGHTS
ASCII
DATASET POLYDATA
POINTS 17850 float
-0.00772758 0.0093266 0.00217215 -0.0137857 -0.0259324 0.00196173 0.0184434 -0.0228097 0.00214364 
0.00533971 -0.0215454 0.00188939 0.0199183 -0.0211672 0.00197335 0.00301732 -0.018435 0.0019431 
-0.0103202 -0.0203665 0.0020153 0.0217621 -0.019692 0.00211803 -0.0216668 -0.01982 0.00197451 
-0.014208 -0.0178617 0.00180866 -0.00691184 -0.0190602 0.00186977 -0.0090622 -0.0154947 0.00199787 
0.0122078 -0.0161568 0.00208422 -0.0054617 -0.0150199 0.00193232 0.0193794 -0.0141997 0.00193832 
0.00753815 -0.0137472 0.0019903 0.00975894 -0.013635 0.00224454 0.01066 -0.0116005 0.00211503 
0.00315192 -0.0112303 0.00211379 0.00173619 -0.0102005 0.00205679 0.00541888 -0.00885167 0.00205847 
-0.00288201 -0.00958979 0.00198118 0.000329118 -0.00965815 0.00202045 0.015718 -0.00699959 0.00188883 
0.00223949 -0.00356022 0.00188713 0.00407429 -0.000439693 0.00198129 0.0244693 -0.0035343 0.00189332 
-0.0193396 -0.00252942 0.0020812 0.00161414 -0.00173307 0.00195164 0.0196043 -0.00339363 0.00186654 
-0.0246208 -0.000928457 0.00215851 -0.0207286 -0.00157528 0.00217017 0.0112193 -0.00100354 0.0017405 
0.014584 -0.0010745 0.00303742 -0.0265776 -0.000581037 0.00202038 -0.0182428 -0.000155455 0.00213882 
-0.0163714 -0.000169566 0.00198253 0.0135156 -0.00379167 0.00187805 -0.0227727 0.00173261 0.00250498 
-0.00997551 0.000892919 0.00201038 -0.00564482 0.00107021 0.00184791 -0.0127944 0.00127088 0.00210236 
-0.00743608 0.000648455 0.00195285 0.0257567 0.00196393 0.00180804 -0.0286926 0.00252931 0.00209628 
-0.0123174 0.00287593 0.00207726 -0.0167284 0.00516654 0.00202951 0.0177811 0.00134171 0.00191496 
-0.00937584 0.00404135 0.00238147 0.0163853 0.00377967 0.00201234 -0.00459548 0.00807505 0.00195178 
-0.00581164 0.00939313 0.00196895 0.00239531 0.00953569 0.0019305 -0.00439879 0.0113614 0.00216489 
0.00164356 0.0130644 0.00251945 -0.00869833 0.0158358 0.00199881 0.0171635 0.0144137 0.00209733 
0.0198593 0.0154535 0.00211048 -0.00645471 0.016174 0.00209891 -0.00541226 0.0158513 0.00201406 
-0.000127238 0.0155052 0.00229309 0.0108721 0.0157586 0.00201825 0.0120912 0.0169264 0.0020748 
-0.00930324 0.0167504 0.002084 -0.00118126 0.0171939 0.00210704 0.00203996 0.0179034 0.00197271 
0.0158867 0.0177907 0.00210768 0.0129172 0.0188242 0.00224614 0.0142285 0.0185999 0.00206961 
0.0119222 0.0196831 0.00214495 -0.00792549 0.0206047 0.00230602 -0.00865867 0.0227626 0.00210103 
0.00252401 0.0231921 0.00202125 0.0132336 0.0237363 0.0021708 0.0132834 0.0249366 0.00201736 
-0.0122879 0.0265472 0.00207757 -0.00242526 0.0275597 0.0020899 -0.00893064 0.0280138 0.00208493 
0.00181768 0.0283454 0.00214118 0.00232777 0.0293439 0.00218874 -0.011715 -0.0269905 0.00198329 
-0.0127827 -0.0264195 0.00197382 -0.0119511 -0.0257315 0.00195976 0.00964172 -0.0247051 0.00182583 
-0.0148225 -0.0249664 0.00203467 -0.013283 -0.0249557 0.00197922 -0.0121521 -0.0247148 0.00204129 
0.00323836 -0.0243534 0.00175139 0.0053918 -0.0243389 0.00183943 -0.0143768 -0.0239087 0.00197548 
-0.0133442 -0.0237706 0.0019311 0.0155538 -0.0237799 0.00193717 -0.0136371 -0.0226732 0.00199557 
-0.0102361 -0.0226605 0.00218594 -0.00902307 -0.0229347 0.00184014 -0.00707841 -0.0232876 0.00195453 
0.00218389 -0.022545 0.00190941 0.00379142 -0.0219229 0.00186343 0.00617154 -0.022339 0.00198767 
-0.0123292 -0.0223616 0.0019405 -0.0112311 -0.0219589 0.00214634 -0.000516682 -0.0214758 0.00192366 
0.00211324 -0.0203288 0.00187239 0.00364728 -0.0209678 0.00235596 0.00731376 -0.0225138 0.00193961 
-0.0139123 -0.0209609 0.0019557 -0.0130394 -0.0215652 0.00201088 -0.0101348 -0.0215137 0.00197022 
-0.00850745 -0.0216522 0.00197207 -0.00449357 -0.0206881 0.00199659 0.0057737 -0.0203659 0.00202049 
0.0159498 -0.0227745 0.00188191 -0.0207851 -0.0207387 0.00184638 -0.00313172 -0.020091 0.00198106 
0.000453392 -0.0191404 0.00197323 0.00396605 -0.0190337 0.00218911 0.00689283 -0.0207285 0.00207956 
0.0128953 -0.0210987 0.00202942 -0.0176417 -0.0202532 0.0019734 -0.0142892 -0.019901 0.00198193 
-0.00419315 -0.0195514 0.00198664 0.00886229 -0.0195982 0.00193994 0.0100503 -0.0197313 0.00200963 
0.0119004 -0.020201 0.00218877 0.0176198 -0.0199135 0.00194245 -0.0127578 -0.0194476 0.00196922 
-0.000839613 -0.017223 0.00184863 0.0164466 -0.020354 0.00176654 0.0171901 -0.0188908 0.00191384 
-0.0178389 -0.0190033 0.00197914 -0.0128041 -0.0183111 0.00204784 -0.00909077 -0.0191262 0.00198122 
-0.00297723 -0.0181124 0.00212596 -0.00190484 -0.017697 0.00205241 0.0109407 -0.0189157 0.00196606 
0.0188953 -0.018081 0.0018902 0.0207285 -0.019307 0.00182342 -0.0221955 -0.0180973 0.00198857 
-0.0153574 -0.0179952 0.00203343 -0.0116573 -0.0186028 0.00222065 -0.00600461 -0.0184567 0.00208145 
-0.00180001 -0.0163847 0.00200898 0.00705467 -0.0178792 0.00195974 0.0101934 -0.0177774 0.00211537 
0.0155452 -0.0175708 0.00197709 0.0179857 -0.0169821 0.00190374 -0.0106079 -0.0174023 0.00202129 
-0.00931414 -0.0167415 0.00196591 -0.00841284 -0.0174382 0.0020573 0.0109065 -0.016694 0.00198629 
0.0118969 -0.0171908 0.00203883 0.0133478 -0.0170575 0.00203608 0.0168448 -0.0174843 0.00195063 
-0.00764464 -0.016723 0.00191532 -0.00474041 -0.0160488 0.00204121 -0.00272792 -0.0158822 0.00191665 
0.0148566 -0.0166591 0.00207124 0.0160186 -0.0165027 0.0019978 0.0198961 -0.0160951 0.00189766 
-0.0104494 -0.0149435 0.00200834 -0.00625378 -0.0168729 0.00182829 0.000751548 -0.015991 0.00229359 
0.00859255 -0.015547 0.00209162 -0.0116433 -0.0151595 0.00204536 0.00776544 -0.014799 0.00196641 
0.0105137 -0.0147469 0.00209429 0.0174169 -0.014871 0.00193483 -0.00996988 -0.0137476 0.00181511 
-0.00703326 -0.0145106 0.00221152 0.00532097 -0.0152148 0.00206212 0.00860565 -0.0141712 0.00218852 
-0.00571796 -0.0131209 0.00199243 0.00163473 -0.0139744 0.00185366 0.0120419 -0.0137358 0.00231675 
0.0133925 -0.013341 0.00207992 0.0144621 -0.0136104 0.00217779 -0.0154993 -0.0126399 0.00195019 
-0.00658527 -0.0125369 0.00193512 0.00235044 -0.0128908 0.00196551 0.00352517 -0.0122684 0.00215781 
0.00700853 -0.0122128 0.00216743 0.00819587 -0.0120332 0.0022056 0.0093931 -0.0123721 0.00211622 
0.0122868 -0.0112937 0.00197731 0.0165719 -0.0122757 0.00188618 -0.00736836 -0.0117782 0.00197914 
-0.00357577 -0.0116092 0.00194056 -0.00232061 -0.0137403 0.00202241 -0.00158663 -0.0121595 0.00205375 
0.000822004 -0.0118929 0.00200812 0.00965858 -0.0111418 0.00196761 0.0175476 -0.0114593 0.00189466 
-0.005642 -0.010279 0.00193446 -0.000659306 -0.0104856 0.00200825 0.000450371 -0.0108153 0.00192875 
0.00456889 -0.00954175 0.00217511 0.00629107 -0.0110309 0.0020913 0.0071904 -0.0101067 0.00208145 
0.0103789 -0.010265 0.0020078 0.020176 -0.00961593 0.00183409 0.0233186 -0.0109104 0.001823 
-0.00381909 -0.010254 0.00195794 -0.00145208 -0.00965377 0.00196214 0.00642042 -0.0093717 0.00211375 
0.00856956 -0.00915316 0.00212088 0.011504 -0.00896879 0.00197077 0.0151435 -0.00918419 0.00209073 
0.0183541 -0.00951875 0.00192314 0.0265315 -0.0102286 0.00185054 -0.00504391 -0.00931996 0.00193842 
-0.0040183 -0.00870479 0.0019591 0.00161837 -0.00901771 0.00215015 0.00672939 -0.00833258 0.00199903 
-0.00326115 -0.0077863 0.00203985 -0.00240385 -0.00859457 0.0020125 -0.000249296 -0.0086525 0.00212838 
0.00105827 -0.00803281 0.00206364 0.00790761 -0.00787684 0.00193303 0.0179552 -0.00821731 0.00188009 
-0.0019212 -0.00760436 0.00203132 0.00707724 -0.00721377 0.00193911 0.00786376 -0.00652304 0.001929 
0.0113367 -0.00591807 0.00189234 0.0194083 -0.00685605 0.00218135 0.02475 -0.00745314 0.00192517 
0.0262657 -0.00714783 0.00198814 -0.000848995 -0.00698186 0.00207462 0.00496762 -0.00645857 0.00209194 
0.00887983 -0.00647881 0.00182753 0.0161134 -0.00597663 0.00189682 0.0211449 -0.00504225 0.00191201 
-0.00705893 -0.00623083 0.00193652 -0.00275155 -0.00639354 0.00199927 0.00051084 -0.0052434 0.00196014 
0.00353825 -0.00637052 0.00200474 0.00568446 -0.00549794 0.00198426 0.0112456 -0.00488092 0.00182561 
0.014891 -0.00532513 0.0019185 0.0258559 -0.00606595 0.00200747 0.0280787 -0.00646333 0.00196311 
0.00783168 -0.00458419 0.00188662 0.0288701 -0.00565939 0.00201994 -0.026301 -0.00481239 0.00197512 
-0.0174852 -0.00487764 0.00198924 -0.00373278 -0.00390425 0.00204558 -0.000649363 -0.00469788 0.0018721 
0.00103219 -0.00412385 0.00205136 0.00522741 -0.00360721 0.0018868 0.00765744 -0.00338751 0.00207091 
0.0124608 -0.00329096 0.0021886 0.0147006 -0.00377259 0.00191395 0.0283335 -0.00472132 0.00195983 
-0.0263962 -0.00343655 0.00203144 -0.0214844 -0.00384125 0.00193475 -0.0196583 -0.00408093 0.00203765 
-0.00736875 -0.0040493 0.00187436 -0.00425159 -0.00294542 0.00179178 -0.00228244 -0.003446 0.00190244 
0.000658815 -0.00308145 0.00192489 0.00252106 -0.00240402 0.00194104 0.00591704 -0.00228715 0.00191566 
0.0207039 -0.00393747 0.00196368 0.0232086 -0.00367765 0.00181557 -0.0289314 -0.0028836 0.00185911 
-0.0275247 -0.00287037 0.00198741 -0.0186333 -0.00355322 0.00209398 -0.017543 -0.00359171 0.00208404 
-0.00539368 -0.00251489 0.00196457 0.00657023 -0.000879578 0.00200678 0.0178511 -0.00390943 0.00210579 
0.0215036 -0.00295204 0.002039 -0.0257197 -0.00126431 0.00208266 -0.0226811 -0.00208953 0.00206986 
-0.0214422 -0.0025881 0.00208019 -0.0203596 -0.00272309 0.0021778 -0.0166228 -0.00179698 0.00199402 
-0.015205 -0.00215977 0.00207248 -0.0132506 -0.00304099 0.00193398 -0.0115531 -0.002824 0.0018623 
-0.00253443 -0.0010736 0.00194971 -0.000370865 -0.001769 0.00202652 0.00330191 0.000550835 0.00187453 
0.0100057 -0.000926083 0.0019108 0.0129482 -0.000808787 0.00189102 0.0226066 -0.00270345 0.00199567 
-0.0265932 -0.00212219 0.00215285 -0.0242591 -0.00190929 0.00216248 -0.0218136 -0.00138158 0.00208471 
-0.0195131 -0.00134663 0.00223976 -0.0180907 -0.00246028 0.00205185 -0.0145056 -0.000937738 0.0022852 
-0.00936209 -0.00230627 0.00207023 -0.00755981 -0.00174934 0.00216699 -0.00515401 -0.00103158 0.00190327 
-0.0014764 -0.000513129 0.00194576 -0.000361612 -0.000649703 0.00189507 0.000792971 -0.00090073 0.00199515 
[...]
POINT_DATA 17850
FIELD FieldData 6
id 1 17850 int
12081 16622 4630 8356 12264 1294 14134 15142 6521 
17794 6442 8134 17536 316 3980 17088 699 15432 
6289 11903 3767 2784 3523 15022 12037 9041 5950 
16813 11972 2335 12114 10914 6217 6162 6101 12308 
8915 4847 6535 6875 16785 10746 10977 12434 14268 
15736 13913 17619 1053 17106 13209 4699 9222 10407 
17005 16190 660 5054 9265 5828 11780 16452 17731 
14939 7720 4718 10189 12751 15763 7264 5135 6290 
4193 4314 4072 2139 17729 6067 9053 4442 4278 
9595 12713 16602 1272 15397 17805 17654 11716 16814 
11822 2008 2690 15039 12004 15302 8160 9490 8400 
4904 13324 166 5161 6778 5947 6840 5274 7829 
2015 15109 2005 6662 9258 14153 9987 17104 11665 
15033 17250 9224 2623 2659 13273 1352 15100 8585 
6998 17701 15342 10670 14717 5340 2113 3978 14940 
16627 14746 1392 7246 6741 3047 5276 3364 1739 
9887 15782 5519 15661 6018 10951 5239 1478 14819 
4604 4559 6323 14022 1461 15919 10454 16468 13470 
518 2652 11115 17233 5834 12047 9467 11446 10549 
594 16400 13482 4510 15247 10919 6584 12828 2133 
16952 550 7887 5725 16255 6341 418 6396 2317 
13695 10916 12056 15980 13650 9766 6174 49 15512 
16647 11738 4185 3147 15686 17134 2293 5795 9756 
9880 12411 252 8937 9688 12341 7139 5183 5151 
11586 17804 5740 3009 17583 6405 12182 12010 12453 
9845 11984 10359 17725 12179 9969 12476 5003 9303 
11196 4454 12025 9051 4146 7703 13891 16233 9089 
6609 7580 16382 5833 11093 2355 2488 2855 16008 
13072 12780 9029 15307 6740 17075 3146 4725 14120 
12919 6685 13985 6573 13767 12468 11975 7880 2132 
14397 8667 11330 15555 6285 4122 2819 12244 16566 
5018 13 10014 657 2775 16253 9897 12413 9901 
1722 328 7119 13038 1235 13847 2738 12340 15222 
4407 460 4665 9636 15875 6560 12711 8542 8217 
16481 10518 12293 3780 4936 15601 6682 5027 11504 
10367 11232 9106 16822 11024 6798 16753 4895 12855 
7398 5778 5585 6480 15888 5701 16739 3400 12057 
12189 15641 15174 15938 12516 5901 6712 13854 13726 
7049 5391 1036 10132 10667 9144 15164 11419 1080 
10674 16386 2602 1786 3392 14593 12393 14610 7364 
17678 5843 16199 12175 589 3633 10283 6572 15793 
10754 16435 1349 13889 6698 16935 13773 16237 6812 
15744 8481 3993 16380 6723 1897 15042 3650 4969 
4994 16005 10460 16826 15983 14769 16650 1145 9770 
2800 5587 16962 8264 1794 15973 15719 9920 9019 
14708 9804 13401 7178 6118 7613 11140 14290 13214 
11985 3652 3766 16698 3383 4607 16455 11670 17769 
9509 9528 13872 15275 14070 7149 12664 14137 14911 
16543 10350 14466 677 9955 1263 5906 13688 2217 
17163 17265 2896 8993 14518 6855 5989 7517 12143 
10372 13362 10469 15215 5790 10465 17472 579 186 
3377 9471 14459 8078 15382 8920 17126 9953 23 
15237 10362 8884 14410 7800 7968 5009 8506 9457 
1146 11737 6051 12762 55 14587 4350 14227 3114 
13522 9919 2325 11977 9127 15135 1166 3412 6335 
2194 12865 6359 6347 5133 5719 3598 157 4349 
8951 9593 402 14552 3132 14692 15971 9159 2352 
12686 15211 289 5684 10298 11158 7247 3912 10181 
7135 9622 3199 16922 8862 10292 7994 10585 2866 
8464 14105 3274 3473 7412 12325 8907 16786 12952 
2629 9798 16550 266 15119 8696 9299 8288 1632 
7641 1892 4714 5125 3217 14421 15859 8089 15328 
16136 1304 417 2172 10900 313 10535 12024 8604 
6828 17795 6090 4651 5885 4473 9285 2697 15071 
12462 4191 2933 4236 6254 5592 17136 5496 4837 
10624 6899 16738 6357 1329 5500 5534 4910 8472 
3866 4869 4160 2418 10216 5939 4862 7400 706 
14372 7004 10866 4280 15754 10457 3311 10790 5235 
10548 1543 828 2234 12559 9740 3419 527 11031 
14915 2017 8417 4048 12846 17318 9729 7696 1623 
6251 10020 2575 9923 2169 16081 16087 11372 1805 
3931 6939 11070 14389 11652 7095 16330 11127 5170 
973 15049 450 11812 4786 3428 8755 4470 13994 
10511 6640 991 13077 8512 10660 14863 8537 12595 
14313 15007 11006 9236 1137 1346 5980 2397 4633 
17122 12107 3151 10714 13895 13139 10692 10173 7013 
5224 17275 14414 969 1180 5503 12755 8065 9443 
15858 8996 3844 8497 2107 4672 9232 11324 2503 
12033 13438 16504 10327 121 1891 13871 12851 16266 
10669 10718 2490 7796 3714 11623 11297 16512 8969 
10888 5645 7082 14704 16940 11371 6599 14946 12902 
90 15908 10030 13795 7534 14436 14525 11455 7876 
7765 10445 11084 17634 13206 4381 2707 8706 13661 
12208 8377 11286 5941 15902 12326 14943 8967 9327 
10424 17625 6674 15439 8878 725 6869 5508 10401 
3367 10570 15573 9003 7477 17670 2657 12428 17206 
6317 2760 7781 12153 4873 9376 17159 15047 14548 
9415 5855 17178 7856 836 1220 6714 10567 3768 
12490 14912 14035 4293 11749 15884 9655 6172 2253 
13337 15766 10500 14163 9323 7912 9307 7907 6975 
630 11593 16821 11962 5238 8061 92 1563 13199 
16404 2497 13868 11647 14589 4671 8372 15797 7482 
4025 4190 9907 6926 8496 13928 2598 10853 16043 
12242 8047 7879 17283 4076 577 14188 14615 1240 
13182 4777 7347 8344 9616 1845 8621 3106 7496 
10 14433 10673 14457 3304 3415 4629 17349 15224 
13123 1707 6320 14713 16060 8184 10140 11408 1778 
1494 9526 11765 8934 432 9722 5136 10408 16019 
14544 2340 362 9538 16744 16551 472 5415 7599 
5540 687 13076 2612 16918 4013 16009 9168 4493 
6150 10341 11364 10798 158 8868 9104 5799 15628 
16109 3018 8080 45 10522 16616 7995 15658 1879 
10264 13519 8097 9074 7480 4342 12971 16117 14752 
12040 1303 11612 6153 11564 6266 15773 16163 6675 
16901 2757 1391 12136 16649 5435 5646 7502 13709 
9216 481 6094 9063 14809 6020 6291 13020 4681 
4282 7115 3046 15113 12097 10289 9806 9867 16532 
3402 8492 7596 7797 886 1915 10965 5589 11414 
17700 883 562 11432 15636 16182 3778 12235 15023 
17237 3738 4007 13653 1152 5615 11270 498 4212 
15195 2465 14254 3425 11211 12122 10753 13049 6772 
5556 9819 8434 11179 13408 7790 16264 8875 3409 
15876 14590 15672 3118 9894 9125 918 11536 721 
12480 13713 16992 14633 6005 10148 9124 9439 10543 
15506 2433 10137 17105 16508 5090 5182 10620 13822 
104 820 11760 15856 14606 5929 4605 462 11678 
13014 3640 7170 5150 11550 13946 10300 8840 8456 
14851 10861 13227 17628 8613 8607 17093 3229 5426 
12433 15594 10973 15197 17673 2077 16126 15809 13403 
14053 4587 8693 4602 16430 14238 16406 7340 13863 
727 4542 12466 10920 7934 16748 13282 582 384 
3854 5000 8582 11346 14663 13509 8622 14087 2227 
7313 8711 768 9494 6824 2305 1023 9363 12786 
2695 15721 17616 11880 10462 4765 4131 2646 71 
3307 13881 14507 11501 5421 12499 6776 4463 1833 
3726 11163 344 16349 8955 17705 13397 13861 4621 
6563 17123 3903 1764 10073 6469 228 15864 9634 
12008 9489 10212 5279 4254 17455 10937 11776 531 
14775 13616 13705 4751 11447 12576 603 2584 2987 
9878 17495 4250 1560 15255 7579 12840 6498 11087 
910 16863 11819 307 5584 3361 10395 7666 2486 
14480 14154 3230 14455 17816 11865 16850 6935 7525 
13411 17693 13549 4574 4030 16275 7192 11838 9682 
14272 17843 8312 2160 17097 4943 8085 1612 8890 
15312 12487 14213 15453 1652 14675 12764 2376 6540 
9762 11675 4052 14446 3188 12367 13957 100 14395 
15166 7770 10639 15842 6546 5830 9600 13170 4953 
4114 9529 17727 7167 9171 11787 12883 17444 4059 
10405 14330 9203 14361 7707 12086 2829 4478 13502 
2817 1644 8866 5220 3167 305 15685 16948 15381 
17339 2792 13737 6181 3373 13717 10749 12372 5721 
9500 6703 6235 15879 13130 11479 17768 3037 11112 
16643 14521 2763 119 15889 16494 2090 6445 17807 
17454 13277 3135 14524 14763 4531 8986 7391 8894 
58 3017 5524 7327 5999 11532 12370 12948 3141 
12103 12746 12369 16503 5806 1156 12730 16811 12492 
2913 17109 16049 3660 4865 7067 16756 14682 7365 
12813 4364 17015 7510 14132 13355 14059 5591 4322 
4983 14111 1046 12684 14773 15078 15176 8261 722 
2557 17576 14179 8596 5654 12135 8103 10566 11608 
213 9177 14917 4561 11868 1984 3427 13016 10521 
2469 16578 3053 2291 8329 15911 14944 2727 2525 
2307 1569 5637 14135 14520 13534 2067 16127 17502 
16709 6134 6870 13967 9585 1029 17199 2468 8106 
13236 9161 7475 1100 3697 14951 2959 2012 7160 
15123 8694 16971 12888 10196 4749 5217 15900 14802 
9734 6634 2312 8922 12647 11023 3808 11713 8823 
12712 10166 12641 5338 5668 15950 16615 17526 10575 
17585 15129 6268 12527 13413 7207 636 2496 3267 
7702 13187 2122 6204 12745 16251 3359 8990 189 
2770 14090 149 7483 17763 6679 2066 12134 7976 
11121 11347 15157 6280 7640 7687 9147 7109 14401 
9298 15498 8741 6474 9436 2661 8074 8350 10171 
1769 203 1844 7249 4555 9487 10872 15869 6668 
4911 4094 4771 8163 7760 6948 7244 2814 1160 
5647 2210 909 1902 12439 1655 1645 12296 12882 
14700 6954 15258 5467 13074 9235 5930 3771 4217 
15244 11860 8562 12785 6631 2768 14857 17782 5198 
6760 4179 7331 7428 1821 3296 4894 8202 7845 
1565 1164 16076 7705 5407 16125 697 11576 3023 
1354 322 1552 110 6141 11358 3541 11793 11306 
17378 15460 7353 1438 14050 8145 12731 1532 4782 
17049 7629 3363 3099 7177 4650 2786 8594 13997 
8973 5683 5031 7884 16552 6410 6315 16459 7708 
6727 852 8055 12332 12328 5048 8141 10886 13051 
17092 6292 2060 4614 3886 1800 15008 7189 7146 
8941 1970 6519 6524 7683 6324 16734 9891 8762 
2163 473 13580 16580 13022 656 4853 17248 123 
15104 12051 1091 8790 12736 8813 16979 11411 10376 
14403 7668 16771 9223 10251 1677 8200 15359 8238 
13263 12518 5751 6804 7150 14745 4208 11584 1056 
16336 7299 8950 9333 6945 5842 5474 939 466 
12618 13673 13924 15878 10308 9725 2720 1070 8902 
12001 4038 13079 11188 14737 558 14811 9658 14789 
3551 7014 10908 1589 3559 12832 9485 15132 11672 
12245 14312 7198 10095 1923 742 13487 16442 3693 
13849 7743 873 14071 15502 11677 13393 12031 13386 
14550 7046 14868 10435 12624 10877 1877 15891 10452 
11518 15576 3308 2214 17226 6437 2649 12939 5838 
17148 14427 3048 13772 8921 13965 10954 605 13777 
10903 8518 1534 8064 4417 5695 597 8612 8714 
7989 7197 2202 12681 13353 6530 16879 14625 5036 
10651 1985 10061 16594 1094 14797 15718 17149 5756 
14860 11820 13210 11239 4811 16306 13193 8011 16041 
15872 17735 10389 4792 13275 15622 15927 15424 234 
5383 6039 14373 6189 8445 16407 12528 9045 12821 
11413 16278 2915 1872 7842 2109 4458 12923 7265 
5555 15713 14651 15818 16146 16603 10483 6880 6044 
3796 16025 16655 13742 12521 2656 4068 12590 3590 
14020 16740 9637 11201 7975 10653 8419 4886 9151 
10016 16933 3467 14214 16447 869 1462 9314 13743 
8966 16409 13884 14088 1308 9273 14471 13054 16599 
9426 16749 11589 15465 17615 9401 5692 7586 15727 
8000 16456 17077 2713 2749 13217 16289 11905 11861 
13968 5138 10763 4785 10398 5883 6810 14107 11568 
2728 15674 14447 16574 6587 17224 17267 9822 9703 
2205 8932 3881 17392 10889 7536 5529 10160 2007 
6555 15665 406 11631 9375 16421 17057 12572 12390 
1025 6329 3460 12137 6904 11616 249 3255 9122 
9462 9695 2404 16243 7112 1074 17210 12685 7370 
7646 15987 1940 12867 11847 12777 11936 8546 14614 
2554 15860 5801 9160 6851 4154 11315 10933 9064 
17379 11046 4601 7195 15321 10305 12946 15225 10507 
2948 17447 14004 1575 4563 6164 9749 10990 5504 
15565 9245 2044 7037 8717 17389 2558 5464 8446 
10487 16265 9483 11725 7214 17760 16474 2693 4544 
14490 17211 12502 6941 9344 3213 1414 11480 14748 
6264 2062 8829 16180 11669 13560 14431 7444 3374 
606 9944 4127 6915 17450 3458 1539 9281 9370 
12239 16818 2292 13683 11856 11795 8959 7616 1175 
14118 15788 7589 1497 14072 17173 4539 14989 11418 
12699 9446 14970 3743 7574 12270 10209 4402 6704 
8208 3101 7332 10957 2337 3870 789 6488 13118 
15054 5964 3228 11380 15337 7011 14900 14398 290 
10805 13684 1213 14519 5026 11094 15043 5424 13247 
7700 12905 13819 2679 16978 5454 11732 11817 13178 
718 14681 14757 6070 16175 4098 2119 106 3940 
3505 5164 14383 15390 2280 7476 13457 3486 10135 
17190 13113 14388 10652 2382 12761 7377 8913 4986 
16195 6054 8625 17558 11635 7437 17116 3320 15353 
9829 3329 10136 14300 7516 16011 10695 16291 8511 
13557 1475 2719 11233 17796 13100 15503 8352 12789 
8845 17677 13164 9123 11482 8872 9784 14937 7756 
14655 11294 3529 17264 4126 6071 5440 15052 15377 
2686 5935 6079 5475 8306 5909 8307 6245 13626 
9338 11253 10971 6832 3447 4612 17532 3072 12154 
604 8685 14905 11651 3746 10272 10304 8281 14122 
14733 3276 2922 1783 5358 16098 16493 1627 2568 
8728 3785 13776 9295 7860 14116 15750 11629 9785 
16988 12957 7029 6082 1077 16661 6978 3472 9837 
6384 6921 8935 15155 17006 9594 12677 16617 12368 
3966 6085 16693 1042 4582 3353 5131 11317 17657 
14668 3900 16416 9873 16959 17820 17791 5691 2443 
15436 13071 16276 13664 13594 17228 15958 15843 3950 
7394 2844 5932 14985 14656 7874 12987 13373 5473 
4447 10833 4611 15459 3647 12493 13046 4420 7659 
8591 10510 10118 12381 17848 13475 7798 15168 5368 
7039 8146 9910 16357 9838 14344 5259 13322 17835 
12877 6240 13837 13452 17688 5674 9859 16529 2056 
15334 3157 663 9669 10412 15637 11802 6598 11622 
14969 4979 16890 3716 9641 13095 13420 17209 15241 
7096 9379 4130 14377 922 10638 3277 10455 2268 
2996 17023 8936 6986 1517 1837 7886 11980 11135 
2955 1853 5988 7881 11464 1465 10297 6892 14369 
14962 10963 3417 6932 2632 3578 14999 11159 1218 
12441 2440 4970 15687 3225 11430 15272 13824 13317 
9959 6803 3827 1253 12142 6547 3260 13479 16674 
8182 14095 16724 5971 10217 9647 7155 16538 9061 
12082 4818 13174 6237 17570 14792 6407 16247 9590 
12819 560 6091 9416 1090 6433 7655 8800 4017 
9349 10039 17473 15957 16327 17511 10112 16148 10976 
11577 12953 140 9321 2013 7324 15940 12108 10060 
13029 14906 9507 7654 482 13545 14241 9154 2476 
4137 5536 15850 5404 10657 10094 9022 2365 5836 
5739 2353 8392 14842 8806 2643 2120 13977 17219 
12221 5800 8144 1519 4426 15651 6831 8042 11726 
14945 9378 10846 10324 17689 3776 12314 2983 12871 
13567 10208 15341 4443 7355 8337 11056 14941 800 
14115 15755 14470 11679 5252 8682 4264 15214 13347 
7626 17812 528 4634 11649 4975 2452 15082 12839 
15991 2947 10789 15264 7346 12500 9355 3727 17797 
14195 6095 13220 17285 26 2081 1882 16692 4906 
4549 11839 15346 212 7577 3483 15045 1474 13592 
9263 15240 7381 11739 14731 3928 1775 4132 7020 
2491 11368 16196 1037 9478 4834 9584 8259 17766 
13348 12933 17026 3698 4106 16239 7505 1067 12105 
4949 2400 11560 2288 10527 410 4396 15278 6441 
10017 41 13063 9028 3434 16080 16928 14729 4774 
12475 13053 11437 8359 12306 12797 11727 2990 14921 
16302 7559 6947 8968 8380 3613 6991 4450 3184 
3345 330 13281 1013 9234 15984 10326 12324 12220 
5515 11162 8601 15147 15374 8083 3275 781 9362 
14336 3549 16261 8926 5831 7722 7125 11170 14936 
14659 15678 15746 639 17336 6787 7538 10330 10384 
10449 11010 11109 11886 8543 13382 10579 7384 13520 
15742 3443 17407 14997 13662 6454 1241 4733 6037 
10964 5594 6681 13372 3666 11598 7518 2203 8137 
8981 1658 6686 3741 8327 9065 7526 10972 2823 
16954 756 2551 5560 14294 5596 1972 8618 729 
16061 10274 12917 6766 5620 9488 9082 10986 2361 
2644 10748 4143 6157 16167 10451 12600 12956 9095 
13052 10210 3064 10785 6913 15831 2117 14151 13809 
14695 8985 3202 8547 10288 8323 1824 8041 6510 
4276 1595 8239 6358 2209 3365 2434 7972 766 
6034 862 9192 5916 8459 4182 486 3481 8863 
1562 10994 2877 13153 4158 13048 3575 3574 5763 
15254 9262 8545 848 7647 7098 5154 1237 9856 
15384 17681 10034 17519 17293 9956 3879 7064 14170 
6443 3081 15689 2801 5123 12294 12249 15821 8169 
5755 1788 13145 15103 16227 3676 4019 2196 14359 
14845 10116 1754 5711 9905 5818 2765 8156 5614 
12627 16619 13055 13803 5264 4245 3496 8216 7878 
17312 11054 10835 3339 5043 12395 4616 9601 3036 
11383 4043 3022 14139 6905 1084 4567 11398 949 
6891 2980 5577 15587 13407 638 4200 1784 3670 
7835 9243 3408 6569 5488 5735 5640 12092 1035 
7329 6115 8748 5622 2890 12773 12765 1173 9763 
2199 17842 7498 11126 5986 6298 524 10072 10233 
2550 8014 15086 2204 182 1843 4673 1307 12252 
11966 15852 15583 6623 14642 500 5202 13497 2545 
11152 8158 3395 6337 10840 7103 13971 5664 8466 
13340 3733 11435 3030 9820 2851 6745 1666 12022 
12599 17080 5447 8157 1109 6919 7554 8904 2027 
6301 5236 5052 2153 8028 9982 881 1908 12217 
12005 7991 775 9282 3810 11505 7915 5648 16172 
13017 7627 7117 7351 10386 1447 12955 8925 12026 
7715 12551 16923 4404 12458 4438 11075 9524 5499 
15785 14496 11022 8765 13033 8463 4793 7320 10614 
11476 12940 11825 9876 8194 4501 14980 13181 7853 
5978 6241 11218 6566 16560 17154 16279 162 14957 
9187 14637 4993 16486 12542 1242 13949 12695 14032 
4781 12250 15828 14658 17317 625 11425 823 12461 
652 12304 12799 11360 7432 6288 8280 15898 1435 
7034 6106 6839 17244 10446 1316 2261 9661 14566 
14100 2445 16880 13119 11133 12706 11340 15610 9858 
1804 17611 10586 16361 11529 15584 2327 6026 12168 
59 16268 383 1890 8026 9924 13710 2914 16112 
16396 5891 10282 2703 15836 526 10572 10645 4752 
2811 4079 13769 11907 3034 2537 10867 13269 16232 
7236 6319 8651 10456 3544 12481 15760 17481 17541 
749 5379 13846 13687 5037 11945 7612 11008 8882 
17113 7866 11249 10574 13262 4273 6995 3206 7623 
17683 8164 143 12399 13788 14933 10280 15877 17195 
14588 6224 10319 12709 7450 12556 937 12204 16805 
6858 6908 14435 7061 8273 13103 8060 17577 8584 
1076 15462 15953 7932 13485 7121 7210 17012 10169 
2651 14190 1069 4135 14799 13901 16729 15311 15521 
11671 12378 12327 5776 17828 5301 9274 7917 5039 
17291 9099 17579 8971 6432 11045 2925 14760 11473 
8747 10018 14252 5847 16193 8101 5578 2159 10802 
504 4445 17648 2221 5544 13010 12497 12073 6278 
15297 17762 9771 11475 6061 11853 14762 13463 12942 
13326 16860 2500 13188 7533 10818 17507 9093 10138 
12945 15770 4730 7908 9603 7998 7735 12495 5086 
3964 7978 2712 15207 7031 16311 15250 3620 14556 
7255 13702 9405 17323 16765 3752 14366 11705 8777 
7145 9195 6423 8779 8887 1796 11842 6981 9385 
5542 16042 8850 8415 11997 15774 12282 12771 8658 
15000 12262 13747 4180 9384 14243 10418 5318 9836 
13950 1326 3160 758 15345 16642 10610 11264 4676 
1995 1112 16960 86 1611 5677 12124 16436 2620 
6105 15065 3799 10604 819 17651 13897 15470 15589 
3643 16485 11242 904 12036 10882 6602 10258 670 
12796 12014 8674 1766 1281 8333 10103 1122 11947 
3645 4327 11527 6517 15722 14836 15590 2501 6012 
5226 10708 1287 11434 3668 10896 11803 6959 3840 
424 16697 8859 856 13503 13172 8130 16301 5317 
4519 1780 5249 10737 4428 2517 798 13258 14404 
1678 7124 5046 8390 8598 9954 16453 8795 16893 
14129 14938 12386 5446 3108 12284 13085 5660 2992 
4444 5794 4491 5851 10028 17608 12352 13075 7056 
4693 16768 16719 3327 1742 15530 40 5522 12704 
15915 16224 945 10583 12431 7302 12455 14255 15192 
10168 5961 2446 379 4309 1491 8079 8579 13219 
8709 6821 1244 15844 16389 13244 17197 4365 2048 
8846 426 16707 4109 13266 6836 16211 14051 934 
15444 10335 13678 5167 14816 16035 17170 9747 14274 
8139 8740 16249 14109 6271 15093 4422 15992 11235 
16864 17622 11923 11949 6213 2540 10553 16317 14234 
14247 1931 11695 7363 4077 14079 16611 10353 151 
6137 14453 14326 2776 2020 8399 7174 13604 674 
169 11183 14485 11882 15429 11160 6080 5713 7938 
6806 15466 2638 15595 9769 10925 1763 16186 14972 
6750 7763 8540 5798 12824 7424 5306 9981 4670 
2275 10930 2310 5024 12581 8428 8635 6807 14285 
53 5527 11855 4397 10257 2011 17591 1399 16723 
10525 17223 17269 2298 9036 7309 7173 6057 14473 
6732 6541 12321 4972 2157 16802 10985 12743 14605 
6438 13890 11708 14162 5390 17030 11933 16063 259 
10752 17337 2266 12188 6651 16473 10290 2463 6198 
10158 8724 3775 10119 9939 8104 11956 14354 15509 
29 5099 6780 12290 13798 17568 655 2336 10924 
8668 14855 6462 3488 16970 2687 9169 16089 11580 
2451 9289 1201 14187 13763 6131 17770 10596 14092 
17386 7032 3974 5702 3148 1456 10430 3896 12157 
753 6002 3591 4532 2631 10406 3899 1071 4829 
14147 16441 13364 4375 7803 16832 4089 1006 4087 
9563 5388 3435 12269 750 2329 3546 3922 5188 
5727 17102 9008 4237 675 9879 10419 4880 4959 
8175 17524 12927 10784 17595 11426 9521 13311 11906 
4086 2758 16555 14559 13797 7373 1085 1095 14332 
1377 12363 13398 3538 4821 1779 16479 19 10609 
8023 14699 15149 14631 11767 13359 12201 11986 9895 
9111 12424 4266 11932 7563 1789 8153 7261 4018 
7697 13558 10243 3849 8469 17776 12643 818 3476 
16953 5352 9183 10093 14021 809 4195 14215 17475 
17691 14820 4598 822 12078 9429 3516 10576 16757 
7217 4078 15826 2940 14500 12119 7208 9701 3370 
17617 5430 5438 1372 5782 15125 3601 8560 8923 
17457 10771 13675 11266 3941 8450 12377 5970 11197 
17263 341 3077 2600 7260 13850 4518 5281 13131 