# vtk DataFile Version 5.1
Generated by LIGGGHTS
ASCII
DATASET POLYDATA
POINTS 17850 float
-0.00664183 -0.0280276 4.90043e-05 0.0129266 -0.0240204 7.96579e-05 -0.0009205 -0.0182595 0.000235364 
-0.00621169 -0.0159206 0.000463638 0.000248817 0.00271393 7.86962e-05 0.00145627 -0.0292201 0.00161224 
0.00281545 -0.0285581 0.000906001 0.00549828 -0.0288568 0.000950353 -0.00614777 -0.028343 0.00096257 
-0.00519835 -0.0286131 0.00155196 -0.00022941 -0.0281052 0.000622891 0.000805303 -0.0283478 0.00095995 
0.00471136 -0.0280341 0.000836232 0.00649874 -0.0283795 0.00132585 -0.00972241 -0.0276932 0.000583778 
-0.00448257 -0.0280727 5.50485e-05 -0.0034237 -0.0280146 0.00115425 -0.00194789 -0.0279425 0.00126035 
-0.000564268 -0.0269036 0.000435623 0.00244586 -0.0268085 0.001011 0.00346499 -0.0275944 0.000598372 
0.00911476 -0.0278071 0.000626506 -0.00613134 -0.0271742 0.00114745 -0.00519522 -0.0270683 0.00179495 
-0.00330734 -0.028499 0.000214365 -0.00151215 -0.0261293 0.000868643 0.000256199 -0.0272688 0.001307 
0.00568286 -0.0273833 0.000704133 0.010828 -0.026325 0.000823069 -0.0128462 -0.0259367 0.000935096 
-0.00900142 -0.0268348 0.000779546 -0.00782463 -0.026457 0.00143197 -0.00691936 -0.0258546 0.00151277 
-0.0036026 -0.0261481 0.00110043 -0.000446128 -0.0257175 0.000807048 0.00374191 -0.0259834 0.00018532 
0.00477593 -0.0261491 0.000846862 0.0121189 -0.0261564 0.00223022 -0.0139805 -0.0258212 0.00207022 
-0.00854052 -0.0255277 0.00101215 -0.00501805 -0.026209 0.000913827 -0.0021065 -0.0252623 0.000338409 
-0.000977513 -0.0248008 0.000571964 0.000623921 -0.0262394 0.00104553 0.00274949 -0.0246541 0.00120524 
0.00696701 -0.0249475 0.00033308 0.0133107 -0.0262178 0.00235006 -0.0150121 -0.0252101 0.00129127 
-0.0119675 -0.0247329 0.00100973 -0.00725294 -0.0248222 0.000981288 -0.00570804 -0.025038 0.000610141 
-0.00423425 -0.0250788 0.000938433 -0.0029782 -0.0242303 0.00119266 -0.00178449 -0.0242887 9.25751e-06 
0.000188341 -0.0246447 0.00089135 0.00087389 -0.0235847 0.00147223 0.00370927 -0.0240859 0.00105765 
0.00480179 -0.0244789 0.00137025 0.0117872 -0.024719 0.000290067 -0.015386 -0.0246763 0.000296636 
-0.00953774 -0.0234578 0.000954551 -0.00515728 -0.0240813 0.000899809 -0.00184127 -0.0235189 0.000778919 
0.00209498 -0.0232146 0.000856017 0.00458198 -0.0231333 0.00110736 0.00561144 -0.0236227 0.000866976 
0.00999936 -0.0216859 0.000265792 0.0109386 -0.0240453 0.000653358 -0.0167046 -0.023846 0.00104752 
-0.0155597 -0.0236085 0.000833762 -0.00593523 -0.0233976 0.000262495 -0.000311064 -0.0233485 0.00105945 
0.00684329 -0.0230714 0.000607741 0.008019 -0.023173 0.000700279 0.0120042 -0.0234758 0.0010342 
0.0168541 -0.0234115 0.00100806 -0.018571 -0.0227475 0.00194744 -0.0169421 -0.0227693 0.00169621 
-0.0158751 -0.0219176 0.000610474 -0.0128885 -0.02255 0.00123611 -0.0124232 -0.0224223 9.96368e-05 
-0.00726036 -0.0231002 0.000224672 -0.0036045 -0.0221171 0.00113684 -0.000432554 -0.0222689 0.0013091 
0.00226367 -0.0220724 0.0017369 0.00330844 -0.021763 0.00118204 0.00518311 -0.0221058 0.00113722 
0.0114287 -0.0217673 0.000679076 0.0187654 -0.0226242 0.0014057 -0.019623 -0.0217606 0.00207056 
-0.0139413 -0.0220166 0.000498249 -0.00690383 -0.0219166 0.001201 -0.00205609 -0.021785 0.00161141 
-0.000325698 -0.0215949 0.000314292 0.00805098 -0.0219195 0.00124786 0.00947719 -0.022159 0.00111315 
0.012412 -0.0220762 0.00116324 0.0135014 -0.0218324 0.00077629 -0.0209249 -0.0206285 0.00147231 
-0.0185096 -0.0215427 0.00229377 -0.0173677 -0.0217092 0.00179196 -0.0160742 -0.0215166 0.00183333 
-0.00453601 -0.021539 0.0007171 -0.00302397 -0.0211116 0.00101216 -0.0020549 -0.0203864 0.000984675 
-0.00126242 -0.0213566 0.000975503 0.000346457 -0.0207958 0.00054847 0.00218914 -0.020773 0.0012881 
0.00428461 -0.0212027 0.000947508 0.00695804 -0.0208897 0.00163153 0.00740692 -0.0203527 0.000742865 
0.0110266 -0.0205701 0.000835971 0.0123343 -0.020848 0.000839387 -0.0217432 -0.0197511 0.00147292 
-0.0195451 -0.0204982 0.00190294 -0.0178752 -0.0209087 0.00127016 -0.0160257 -0.0198414 0.00189483 
-0.0150264 -0.020908 0.00130733 -0.0132137 -0.0211968 0.000756108 -0.0104776 -0.0206065 0.000522614 
-0.0088308 -0.0206732 0.00128371 -0.00392714 -0.0202945 0.000130892 0.00202275 -0.0200088 5.40109e-05 
0.00350204 -0.0205592 0.0019239 0.00565279 -0.020573 0.00103756 0.00867949 -0.0200513 0.00124892 
-0.0224292 -0.0188537 0.0015988 -0.0205345 -0.0197566 0.00228915 -0.0171797 -0.020009 0.00137226 
-0.0152006 -0.0188226 0.00146336 -0.0145899 -0.0195961 0.00102115 -0.0116707 -0.0207784 0.000883651 
-0.00746603 -0.0201087 0.000462769 -0.0050897 -0.0201105 0.00122736 -0.0017287 -0.0193066 0.00101027 
0.00039853 -0.0195321 0.000635247 0.00463861 -0.0201846 0.00141497 0.00654059 -0.0195211 0.00197326 
0.0123565 -0.0196408 0.00120264 -0.0215183 -0.0189419 0.00233378 -0.0194412 -0.0192725 0.00176821 
-0.0131102 -0.0199431 0.000755865 -0.0101079 -0.0195853 5.53949e-05 -0.00317848 -0.0184808 0.000110549 
0.00149462 -0.0187639 0.000165572 0.0032389 -0.0197814 0.000670588 0.00490655 -0.0190106 0.0011712 
0.00754869 -0.0185512 0.00160148 0.00952775 -0.0192876 0.000641732 0.0106429 -0.0183676 0.000322011 
0.01151 -0.0189539 0.000741944 0.014393 -0.018423 0.0011672 -0.0232838 -0.0174791 0.000270586 
-0.0226872 -0.0177486 0.00182683 -0.020375 -0.0187023 0.00215796 -0.018055 -0.0182697 0.00191909 
-0.0162157 -0.0181541 0.00113125 -0.0147369 -0.017484 0.000792936 -0.0134821 -0.018582 0.000581908 
-0.012237 -0.0190418 0.000999766 -0.00666088 -0.0186449 0.000924796 -0.00448597 -0.0183012 8.00904e-05 
-0.00193902 -0.0180499 0.000737309 -4.67505e-05 -0.0176507 0.000933826 0.00257312 -0.0189127 0.000552583 
0.00606719 -0.0179065 0.0013476 0.00753598 -0.0175572 0.000935628 0.00983657 -0.0181848 0.00142874 
0.0132564 -0.0188654 0.00173279 0.0162927 -0.0175978 0.00133666 0.0189809 -0.0172342 0.000976265 
-0.0240952 -0.0164004 0.000298214 -0.0229215 -0.0163729 0.000810103 -0.0220638 -0.0169349 0.00133045 
-0.0200179 -0.017843 0.00132534 -0.0193311 -0.0180837 0.00225599 -0.017626 -0.0169859 0.00221491 
-0.0137948 -0.0177834 0.0013297 -0.0111748 -0.0186987 0.000741968 -0.0078864 -0.0186137 0.000468835 
-0.00568685 -0.0182519 0.000512103 -0.00357985 -0.0176096 0.000926334 -0.0012611 -0.0175913 0.00160342 
0.00195801 -0.0175794 0.000569205 0.00334278 -0.0181467 0.000401967 0.0042123 -0.0180228 0.00115949 
0.0061958 -0.016858 0.000806957 0.00858082 -0.0176886 0.000916513 0.0112555 -0.017523 0.00125601 
0.0122815 -0.0183074 0.00189032 0.0184775 -0.0163644 0.000379118 0.0236799 -0.016348 0.00236249 
-0.0189234 -0.016829 0.00228425 -0.0160099 -0.0168912 0.000924766 -0.011803 -0.0173828 0.00167376 
-0.0106679 -0.0177194 0.000760488 -0.00930083 -0.0173777 0.00105186 -0.00834354 -0.0170316 0.0002284 
-0.00507509 -0.0171891 0.000661465 -0.00222148 -0.0169779 0.00134865 0.00270435 -0.0166076 0.000174967 
0.00371486 -0.0171107 9.61887e-05 0.00711687 -0.0165333 0.0013438 0.00892211 -0.0163969 0.00211686 
0.0098857 -0.0168793 0.00166281 0.0124358 -0.0167942 0.0019881 0.0140636 -0.0174115 0.000796163 
0.0170554 -0.016812 0.00181254 0.0225919 -0.0153078 0.00263358 -0.0251725 -0.0151321 0.0010241 
-0.0242421 -0.0153087 0.000550949 -0.0226518 -0.0147845 0.00100149 -0.0216983 -0.0155685 0.00186116 
-0.0200072 -0.0162941 0.0021369 -0.0180595 -0.0159742 0.00214015 -0.0157012 -0.0155673 0.00201391 
-0.0147953 -0.0165996 0.00179666 -0.0131558 -0.016919 0.000853327 -0.00929766 -0.0164266 0.000102373 
-0.0072282 -0.0161528 8.0433e-05 -0.00430622 -0.0162196 6.94761e-05 -0.00198187 -0.0162601 0.000373023 
0.000254671 -0.0162183 0.000397267 0.000964051 -0.0170621 0.000453557 0.00390993 -0.0161662 0.000965152 
0.00498709 -0.0162996 0.00136717 0.00804156 -0.0156765 0.00152962 0.0103361 -0.0158558 0.00198307 
0.0161506 -0.0158474 0.00156196 -0.0221891 -0.0145148 0.00220379 -0.0206225 -0.0150256 0.00201499 
-0.0194451 -0.0152373 0.00214069 -0.017875 -0.0150559 0.00162362 -0.0139384 -0.0155366 0.00207799 
-0.0118616 -0.0161109 0.00162474 -0.011291 -0.0163076 6.43712e-05 -0.00521029 -0.0160236 0.000950516 
-0.0031646 -0.0161906 0.00131058 -0.00121516 -0.0155465 0.0003165 0.00110073 -0.0156703 0.000986138 
0.00233463 -0.0161072 0.00152682 0.00382304 -0.0150353 0.000667873 0.00482193 -0.0152019 0.00191807 
0.00636359 -0.0150307 0.00155418 0.00952529 -0.0150985 0.00224987 0.0115264 -0.0156588 0.00138495 
0.0127696 -0.0152031 0.0018506 0.0140529 -0.0157576 0.00199809 0.0154688 -0.0158225 0.000303538 
0.0164178 -0.0147587 0.00104102 0.0194808 -0.0149671 0.00100285 -0.016909 -0.01433 0.00263541 
-0.01572 -0.0142272 0.00179219 -0.0135679 -0.0143419 0.00181565 -0.0120813 -0.0151151 0.00133197 
-0.0106184 -0.0146645 0.00128983 -0.00978385 -0.01559 0.00105378 -0.00634602 -0.0147196 -1.95057e-05 
-0.00515434 -0.0143588 0.000747006 -0.00357868 -0.0148006 0.00173048 -0.00012652 -0.0150155 0.000648866 
0.000850643 -0.0144924 0.000460284 0.00196505 -0.0147712 0.0012145 0.00384049 -0.0142233 0.00172785 
0.00575987 -0.0147056 0.00253382 0.0107267 -0.0147424 0.00183722 0.0118652 -0.014658 0.00253838 
-0.0249555 -0.0138601 0.000214168 -0.0236724 -0.0140087 0.000415478 -0.0206059 -0.013342 0.00164311 
-0.0183698 -0.0130186 0.00201884 -0.0168693 -0.0131553 0.0025231 -0.0132396 -0.0133044 0.00275728 
-0.00948612 -0.0141889 0.00078167 -0.00785144 -0.0141577 0.00124342 -0.00580574 -0.0141496 0.00168813 
-0.00125345 -0.0143556 0.000850469 0.0011909 -0.0135157 0.00111893 0.00265519 -0.0142115 0.00181636 
0.00505437 -0.0132223 0.00125199 0.0070352 -0.0136639 0.00206502 0.0100251 -0.0137406 0.00218737 
0.0135327 -0.0136286 0.00139868 0.0146426 -0.01337 0.00214857 0.0153654 -0.0139009 0.000341658 
0.0172917 -0.014066 0.00121188 -0.0240927 -0.0133956 0.00137023 -0.0223595 -0.0130144 0.00114761 
-0.0197427 -0.0127753 0.00213647 -0.0180965 -0.0115127 0.00235513 -0.0161471 -0.0123139 0.00265731 
-0.0145905 -0.0130822 0.00244962 -0.0118191 -0.0140744 0.00128056 -0.010598 -0.0131737 0.00196192 
[...]
POINT_DATA 17850
FIELD FieldData 6
id 1 17850 int
11142 6472 6206 17433 17646 17579 7206 10100 5486 
8224 17402 3008 5291 13340 11806 3672 11953 4429 
5889 14117 8164 17129 16413 15737 16192 4494 5679 
15473 10726 6412 12397 17367 4708 3651 3414 3543 
8302 2446 6416 14107 2822 404 12663 12310 12676 
14915 5824 12009 586 15480 4461 5260 3417 17654 
15944 2966 14118 11219 10658 11144 4231 224 2702 
13225 10355 10834 8133 14267 2293 595 5833 1473 
8052 9720 14863 14743 2201 15107 2734 12012 8346 
8781 2430 12521 7496 6494 15500 15177 16798 2176 
2418 7301 11031 14755 217 11043 4206 14501 508 
4165 16139 6566 3147 6465 13821 9100 6593 12716 
13174 1756 16434 17614 1938 9922 2267 5243 10795 
2562 12556 12097 322 2777 16968 7338 11917 12736 
14323 11914 10225 5838 4847 2045 14481 12340 550 
9502 2789 13366 16457 9221 9247 6323 8665 7912 
7481 5712 2351 4273 16956 16509 16877 9046 6702 
4427 4285 8808 7705 12759 884 13589 9625 6836 
17142 6503 16380 10308 11503 2447 16226 17739 7427 
3239 16973 8057 453 1049 5574 11446 4690 1905 
16763 11988 7437 15418 3637 9340 4693 6847 13188 
13817 5955 5891 7253 16436 7670 12698 8797 14764 
12001 332 8715 4671 17218 9273 11995 12483 8814 
4560 10584 5221 6014 6789 13024 7220 4550 3105 
666 1751 11364 1083 2119 6850 16881 3517 16925 
7428 12984 5850 4503 13071 7789 194 12376 8487 
11136 7845 5397 7966 10483 13419 13857 14772 11106 
8844 2198 5275 8097 14920 6435 8989 17701 8461 
14049 10697 1018 2153 141 6704 4465 9456 3109 
15132 6894 3756 1804 74 11276 4732 1520 4917 
3748 146 7058 7157 7121 16079 5750 10346 4079 
9654 6266 16354 5667 8423 9103 6488 17370 17640 
10621 16114 17723 9482 9182 17565 3379 5085 13036 
8384 17411 3768 11283 6172 10245 10271 4835 8250 
13692 1317 17049 1204 7795 6267 5559 16474 14835 
8777 2179 17264 9041 12277 16583 8654 8490 9807 
6976 7462 14275 16223 861 7599 1860 11612 4069 
14093 7913 9027 13020 1138 12320 16245 3281 15399 
6810 5638 6297 15704 11946 11958 11481 10670 8783 
9037 8997 10450 16741 13806 7169 2363 9529 4674 
12842 16371 15715 11304 3691 8714 14828 2532 6188 
17380 12109 7179 12885 17074 3290 17573 4860 12547 
13961 597 5612 3833 15388 14530 9432 1149 7082 
4127 7104 11539 6232 1298 15701 6683 13820 2144 
7629 17013 8606 10533 15987 5526 444 11708 4365 
277 1062 15459 5290 618 797 1867 16668 8625 
8498 13699 7733 7883 2287 2441 13769 5433 2439 
12212 17558 16374 5795 6052 6350 14806 2215 3273 
5520 12285 7761 16603 15379 7860 8982 1356 11299 
7544 5626 15245 3767 14453 8261 3525 11795 13448 
8824 6548 14185 4487 13881 275 5403 11780 16249 
732 2664 13545 3542 2451 6977 4266 5992 16327 
16585 4126 2787 10384 5837 7340 6154 6980 15820 
13575 9614 6344 3540 15991 2538 5831 13097 6712 
13923 6685 6436 3583 11389 3862 9898 13458 13450 
16963 16355 17501 14380 11253 6773 15842 5495 4582 
17704 479 13 11217 144 7168 9449 1862 9332 
2014 12039 8593 16750 12047 17826 7409 14122 12762 
9980 7972 9305 2870 3985 6515 4611 15375 2998 
17153 1948 12906 17225 7657 1549 16488 5164 5695 
4 10982 633 5920 11565 1019 10897 3910 6543 
15411 11531 14793 11326 13546 8628 1628 12350 17276 
1095 10923 4459 15680 11108 10646 13951 13358 4379 
6840 6286 15777 2813 812 5932 17731 7718 4800 
675 3191 13200 12469 325 13793 16441 9627 7652 
9183 10577 10503 9511 7832 10405 1710 2146 2308 
3076 13525 4415 1561 7807 12659 12372 8661 15812 
16922 13297 1314 11413 6892 7690 6711 8195 12529 
11009 13561 11773 16116 13799 6666 2858 7742 4519 
6953 2412 3888 280 6874 17089 14808 674 11318 
2708 9581 6110 13456 13137 9142 8471 17061 3580 
9849 11292 15029 4953 6578 15844 12182 9417 17651 
7294 12651 16948 3328 11412 13602 14491 7172 3490 
4596 11103 17477 16695 13004 13774 13309 2921 4194 
10283 13320 16486 15419 5738 4537 4105 16002 1686 
12797 17018 5766 13809 17442 6932 5567 9474 15522 
8884 8713 2748 6786 7952 6065 17050 15535 14901 
8722 7763 10776 947 12392 2833 6798 7059 17361 
13694 13198 16853 551 1121 10516 8180 7420 2102 
3356 9149 1734 2284 11920 3360 17672 4909 12067 
6077 17609 12966 14014 10094 3830 17342 6590 12699 
12002 468 4418 5841 14246 11495 7374 2242 13241 
5524 5173 17596 3135 17179 4367 7472 11538 16440 
3088 8858 6181 16171 9673 2393 1954 14731 10021 
6532 2801 3119 9414 7413 532 13518 8991 9439 
16040 9527 7906 3793 13902 6579 4433 8095 3039 
12811 13153 9566 5345 9164 4554 9317 16684 8577 
3937 14214 3095 10986 8758 10664 15926 9714 16548 
15585 3824 16450 4555 2353 3860 3604 2606 7130 
3681 16939 5113 7871 10218 8322 12655 7144 15854 
16536 5342 13894 2158 15662 3254 638 12691 13551 
17713 17488 3853 14770 13065 4324 5611 15069 7522 
6203 3269 3846 6221 17592 8258 6665 4577 6681 
16503 9512 14371 6768 7824 4436 13696 14441 13469 
1582 4518 14239 16891 9382 2271 1372 5870 14301 
7475 17351 16540 766 2588 3096 10846 15981 6311 
4262 8639 5461 5198 7874 17576 7502 10770 7672 
892 2843 17101 16500 2680 6867 10631 9388 5896 
3905 12470 13979 16861 7108 11739 16743 12943 12209 
10145 6820 6147 2258 17625 10199 2052 13790 9682 
15947 7022 13714 17617 6375 15889 7384 272 11441 
14428 17630 10219 17676 7390 9436 8890 1072 781 
17612 1916 13175 13274 3212 4912 16758 14144 13920 
517 7160 5040 5921 4354 7764 15119 5818 1207 
1586 1465 12620 11547 9897 7677 931 6502 16034 
16335 8910 8897 4842 11659 7285 15931 15567 9946 
9780 2565 1706 966 14765 17631 5218 3765 14514 
15564 12908 12920 13700 15606 17294 4861 4200 11706 
1570 10215 125 2029 13378 7518 417 11737 10502 
1603 12088 2330 12111 10824 3403 17650 14161 13407 
13056 5644 11060 8935 6413 4846 14833 2365 4347 
11528 331 13370 5728 14932 6108 7149 14840 16864 
15032 6128 8524 3734 3275 5762 7526 902 3370 
8865 7854 8259 6985 7967 14936 5028 9252 7043 
2619 11761 3359 12930 10519 5547 13762 14528 10757 
5041 3120 17836 543 11054 2865 9425 5830 15742 
5780 13885 2599 17064 11557 9937 4334 10013 9349 
9289 11697 2661 787 6791 958 730 2671 4473 
14600 16177 11895 12231 13758 17109 4155 13424 12254 
10505 5459 6239 896 16262 5846 5098 689 16710 
17117 6192 9783 17220 11829 17259 12524 11104 13614 
11206 12615 1719 3373 3044 3908 7746 4778 196 
2162 17642 10112 7339 7417 7954 11711 16225 9450 
12100 1753 17093 11082 2816 9161 3924 4251 13016 
399 13382 10005 16272 808 920 16961 14756 253 
8744 688 16152 11614 17273 14995 17284 8968 5687 
16216 9591 6564 4710 13854 12781 13021 11759 6940 
12677 17527 12247 954 16499 5297 15631 6554 7741 
17082 10035 139 7711 5718 12730 13086 6828 17199 
882 13395 8183 4570 372 2125 10107 8 4928 
10128 17517 11766 6140 5576 701 16284 5241 16865 
3454 11407 10935 6124 17056 7517 15837 4400 10786 
5228 7346 7304 15185 16197 3515 3719 2895 7946 
9823 5190 15338 5456 9360 16652 12211 2487 12315 
2517 1738 15077 12408 17368 16295 3027 12788 10216 
8664 974 6269 9681 5784 4432 8398 6399 5007 
3870 16562 16645 8141 6889 4894 3541 14667 17575 
4593 10190 15665 12998 775 4405 1800 16647 10660 
6137 11329 12051 7973 15538 6981 2948 7112 16722 
15016 14383 7715 8238 11677 9236 14153 10727 13723 
14838 16469 3143 14368 10102 16046 14866 6675 17337 
2499 2518 852 8904 13539 17636 10992 11358 5065 
1213 5769 9788 17125 5725 15676 1541 11576 11099 
6470 12161 297 6896 17162 5149 4414 15786 17138 
1669 10081 16198 9113 11859 6745 4301 2830 2992 
11955 3699 3291 12554 5151 13030 7932 6231 15969 
12941 3535 10626 17722 4490 5903 5453 10442 13383 
10997 13210 3671 15447 12851 17039 11951 3943 8385 
1080 15502 11746 3674 8600 13887 8172 6226 14883 
15752 14388 2408 16470 13244 13667 10418 12005 14321 
8388 2537 9092 14406 10064 15563 17144 9889 12622 
8296 6460 2762 72 13162 16159 5230 5443 6908 
13721 16539 16370 17080 1258 5842 10365 13335 2759 
9539 807 11571 9842 12304 10829 14725 971 17309 
7190 13640 17412 11694 1546 4509 14757 10665 7046 
10628 9744 9314 10264 5919 4867 9361 6475 11564 
12632 5747 5965 11421 9415 13900 6927 12517 245 
15732 9754 2462 16969 14614 2000 12688 16043 13543 
3601 3317 17765 1127 9229 9232 13250 5052 13683 
2572 11185 16887 2055 6010 4744 15996 15243 15815 
15226 7945 10513 13393 4006 8761 7901 15824 6080 
13353 11508 4057 3300 11533 955 5003 4758 15853 
17038 13599 317 8145 15115 8861 5959 14082 10610 
1 13359 10721 12574 10329 4299 7477 12048 8369 
8020 5558 1651 2522 10975 8698 1691 16230 2089 
11518 4792 17683 11676 817 6241 14011 5380 1777 
6936 14489 7893 7039 14476 11558 14166 3917 8663 
7511 6740 14986 1975 17653 15247 10014 15833 760 
1479 17334 1797 7516 10435 4877 5569 8437 1413 
16057 5412 12870 7772 2738 942 17566 15009 2788 
12083 12078 16591 1022 839 14942 1076 17113 8013 
14736 14759 17462 17040 10668 16000 4358 16872 8336 
17168 16289 14843 15838 14218 16202 7955 15648 12697 
15000 14831 4076 9726 17172 3990 10467 11396 549 
13713 7336 10981 8591 14749 4391 11890 8829 9116 
17192 7635 11434 2428 2844 13019 4388 14781 14658 
14193 208 713 1185 2682 5103 11645 7444 12802 
11787 15674 8807 1315 2094 6866 440 4629 7790 
4384 10743 14573 14979 17513 12872 10583 9035 14948 
9803 4372 6825 7767 15234 17848 4798 13661 6122 
3418 13467 6965 5645 911 423 1572 3784 7984 
4403 14283 1448 1761 2333 2413 7133 11888 413 
8446 10969 2521 2317 3174 6625 11871 12316 191 
9925 11738 9105 37 1774 16866 10345 2907 13912 
4586 11754 13473 2999 6646 11430 13695 1161 2554 
9908 16705 1614 432 104 15422 5760 13764 6390 
342 8872 15171 579 10597 9907 17813 6563 8210 
6432 13266 3834 6320 2046 2253 5835 5391 9613 
4445 17770 1226 10341 6678 12151 12928 1531 12784 
14431 10801 16375 11323 9494 11237 10737 13096 12674 
16175 3992 7270 6933 16021 11285 273 1340 1444 
3 2527 5705 12282 6521 4632 4114 14455 8525 
8220 4013 7214 17767 17275 8553 3773 11991 7478 
5859 5299 9063 17522 874 6299 12626 15572 362 
11905 9338 2832 11618 17816 7233 6059 100 1947 
6496 12572 5111 6535 13744 5791 13838 14893 14513 
17223 11 3751 8629 6919 3146 10474 1270 5623 
8129 3491 2953 7907 10334 6876 11102 259 10127 
11689 11730 13141 5530 9418 16824 13590 14269 4947 
9394 16993 3603 17621 15755 438 14512 8580 1331 
12516 9538 17737 7577 11179 3129 16857 7241 14131 
8401 4888 6184 17175 7603 9083 13523 1961 4768 
5987 2354 17115 4108 13932 684 10326 15861 13158 
12369 12154 15481 15688 6098 4201 7008 14548 255 
11550 2335 17645 8831 2515 12779 1337 16483 16713 
16747 4137 687 3960 12253 8685 5556 4295 8187 
5215 12522 4394 13314 16714 1618 15278 7234 2976 
6089 11247 7178 11112 4720 5099 17235 3302 13760 
3856 7209 5854 5245 10278 1956 8080 12171 4589 
16688 7943 1826 13996 33 11963 13877 6017 16519 
4164 15527 12768 8918 11180 10571 17547 10844 8402 
16133 3483 3455 7361 15685 9134 7500 6596 159 
10639 3393 11321 5811 11048 4036 2646 10524 12538 
433 12145 6615 16351 2831 1679 16858 17178 3912 
5427 13689 11949 7891 7687 17098 7750 5957 7337 
9355 9590 2347 254 12849 12513 13428 12449 17239 
1402 9286 8483 6872 1569 13724 3678 1865 7237 
15103 16599 5084 4426 16827 2749 17493 10288 2583 
13093 16954 7654 11596 17697 8002 11419 14067 3968 
5196 17201 4325 7797 17059 1608 13372 2450 9351 
7398 1910 6883 8849 10909 6812 10143 1495 9197 
201 13025 15590 5457 10489 16756 84 9097 4407 
5339 7200 1374 389 8656 9452 12686 6142 9337 
11729 8505 6461 17845 5953 7572 14988 13247 8233 
4468 8620 16507 1657 6739 9828 14679 2910 7434 
7938 8560 11090 2436 12679 2645 11656 231 12146 
2469 8382 14025 6449 2692 14880 14361 7669 15970 
531 9863 9004 9697 8867 2266 9287 1275 14451 
15240 5393 836 93 3211 3134 14607 5990 6577 
17325 13326 3558 10042 16977 14654 7561 9050 17785 
1269 3582 11887 12348 3420 12203 5458 4908 12527 
8693 3055 6897 7514 13969 4979 11425 2482 7686 
10629 1426 6814 3126 2309 11420 5541 780 5966 
5652 8307 16621 8768 14590 541 14037 7821 4041 
14652 16796 11817 15562 5873 3114 11611 8027 795 
14904 3073 9639 5027 5326 6485 13906 3894 3267 
1754 3989 8741 1575 2676 14294 15182 16920 17072 
1286 12382 4698 14858 16903 15781 225 12333 9465 
6468 12294 6659 14700 3555 14452 17041 5132 12509 
17241 9367 8126 14411 11835 13990 12414 9798 10089 
17256 10709 17675 545 15830 2617 400 12707 15532 
10945 5512 15120 15956 13289 8675 10543 16792 15349 
6970 9053 9737 4238 1117 11058 9666 6402 11909 
171 5009 6003 3521 16092 8633 451 16315 8343 
10611 2121 12589 17638 13937 3663 11992 2247 885 
8590 2128 15612 310 8216 13343 6925 6642 4789 
799 469 7147 8113 4599 4803 8304 12701 8156 
3274 15516 12584 9772 17436 8169 6633 11797 6381 
15299 1988 7729 1649 6385 4061 8033 6443 6164 
2512 8357 6717 4374 7395 3697 12592 6672 9285 
12742 17514 10297 8564 16275 1715 14151 8739 1303 
6318 8542 2244 7827 262 5056 11601 11175 8122 
3081 6607 4248 2239 15435 6111 10236 8409 5450 
16003 5603 8975 4419 4416 4615 636 14827 12956 
7331 2533 6058 11039 4339 5730 12054 12672 4055 
9444 741 15026 12218 7774 15456 17393 11109 1643 
7808 8499 3629 4885 17271 6426 10110 6962 5220 
10080 7840 8852 11023 13002 17300 14674 13618 15249 
3749 5025 12534 11443 14010 1858 12257 15308 6173 
14587 4640 16523 14262 305 11155 15090 6007 8815 
1487 2085 13279 611 16819 5515 12459 10780 10994 
17550 6376 13730 5862 8069 10321 17812 15810 15831 
15614 12914 2847 10544 11990 1681 8838 8480 10309 
5473 14732 5882 2993 9358 3496 9413 11637 9903 
10189 663 16281 4486 1167 16039 12763 14233 4774 
3934 12484 2209 7350 15196 2555 1564 15623 11001 
12072 12917 3621 11442 9150 15608 1615 3489 9402 
11743 1362 917 12968 680 17048 11575 11559 8775 
11100 153 2931 13234 10532 13973 15698 13980 6842 
4863 12570 13823 9952 15697 1339 2186 16439 6751 
9950 9692 12581 7632 5039 14595 3528 2104 13176 
13600 464 14263 7015 5078 10564 1403 4958 9261 
2720 11173 11201 2550 4345 5539 2151 4626 12037 
2838 16761 6926 9056 13257 11450 2852 2564 16420 
1205 10374 17130 4526 8594 4717 14419 12790 2259 
222 3995 9385 49 1082 8767 10708 16944 11133 
9249 5794 15484 16665 17069 13455 11720 6895 2924 
10385 11864 12153 5507 4716 7884 473 15622 6442 
15930 9426 8631 10319 1819 14415 12137 8725 9341 
6250 11336 3677 13010 9257 5767 4208 12025 8300 
6386 1545 10573 14642 12204 11647 12453 8179 11926 
3277 1553 1416 5005 17037 6018 13222 11851 17255 
14715 15052 17156 15543 7063 14798 16156 16305 1828 
7246 5508 10441 10690 13959 12695 15293 1711 13472 
2075 4704 12264 11544 5187 2289 7446 17823 1808 
11252 10876 9740 13139 5582 11669 1220 6478 1685 
13950 8673 8313 13421 15990 7288 10246 4021 510 
945 9747 12124 9832 6804 12355 1739 12495 10270 
14379 8568 13916 17670 11589 8558 14155 5808 10645 
6533 7004 17108 9467 1409 9687 3693 14704 12754 
4754 16254 13109 16720 3594 15852 6406 10724 17451 
9642 4037 5801 8809 13199 7596 1344 16606 3933 
6477 7013 2704 4305 11262 16240 10765 13867 8292 
11047 3265 15096 5224 5980 1693 10860 11556 14257 
12130 10827 5377 4880 1980 13414 15966 17464 6457 
2969 16723 9984 6587 13751 8065 2767 16293 10281 
9324 2902 15088 8635 16257 1036 6277 11014 2505 
10207 14456 829 3640 1635 16142 17088 6388 14519 
13767 3253 630 1026 9992 3145 16104 9377 4128 
6062 3884 12267 11204 8670 8236 1232 16466 7908 
10251 6807 11452 15095 1813 7887 6096 16902 8855 
11070 5280 16259 359 9420 1407 2607 14897 2423 
13968 14837 265 16700 2025 1903 10339 13337 1071 
652 8138 13463 717 14018 9430 9485 8738 15457 
11460 9479 14210 10078 2234 4939 13705 9880 7392 
1524 5727 319 5375 16588 14877 10019 10894 14594 
10509 868 8306 9148 17746 315 14720 1925 15556 
12443 6291 10377 7403 12787 16568 16389 2731 1277 
14588 6075 1390 6904 11118 13397 10702 10478 2424 
4174 12056 3046 883 3526 10414 12846 10024 4643 
15961 16266 12312 461 9626 4316 6851 10434 13147 
9198 9381 12138 17656 10351 13682 3550 17066 11339 
5708 7678 16224 2594 10914 2780 11466 145 608 
17228 2660 3547 11642 5358 2719 1917 1343 14580 
6541 13925 4274 11566 7016 17206 4807 17148 4292 
14854 3295 10209 12926 17793 11254 106 17815 4656 
13917 5477 2265 8395 165 15998 7598 17121 9968 
13389 10772 7456 3049 5724 16569 1641 5327 6861 
1960 10767 15873 17591 2571 17727 35 8988 9911 
17555 2867 15409 1460 1088 15724 1798 16850 996 
5225 5686 8130 7704 6163 7296 6012 12040 10911 
1506 12143 17184 11779 13952 5607 10553 8018 16264 
7872 1235 6637 2658 14398 450 11636 10085 10412 
158 7137 3893 12514 2603 17249 7724 12889 17226 
926 16706 11433 8242 1015 6788 8463 17458 15279 
4575 15303 10058 11939 10725 4406 1249 17087 673 
15504 7918 7888 3895 4818 8317 3325 16008 13773 
939 14735 17104 4625 11007 8826 12122 8473 9778 
11399 3805 9016 7553 10896 163 16868 12240 14846 
15050 15814 13757 16290 11750 34 14534 1871 11858 
12718 11171 13859 12126 7849 7242 14909 335 4303 
11274 10852 8614 12899 9190 10874 14775 14147 3839 
7072 655 13947 5739 1223 11952 14972 3712 7581 
6506 12386 1466 9428 1705 12337 17002 11807 16176 
14376 8077 14576 6750 11941 15070 14978 12804 3617 
17085 13693 10379 4313 1084 1924 15263 13184 17618 
11026 16110 4655 2590 1125 16690 8529 12191 6127 
12840 13889 614 7140 2861 80 12030 15113 10561 
9362 9321 9085 11110 11392 12957 7927 4898 1898 
15264 17230 13445 15054 23 12895 1347 5430 7360 
8207 9888 14302 16119 14981 9220 16005 17578 9770 
9543 17106 12364 11504 1267 5452 7816 16833 13453 
9208 8031 13578 7469 17319 13649 10603 4447 5653 
17081 10173 9275 16927 8782 14076 14115 12995 10907 
17681 4992 4235 17440 16661 17314 16036 2059 14400 
14089 9733 15087 15692 3778 10644 11003 6568 7510 
8338 13957 1135 5064 15906 15949 1600 10208 15130 
5553 1513 8425 9617 10017 9602 4065 7739 12550 
16926 14290 16559 7192 7756 8956 17529 17231 5911 
4243 11491 11530 16031 2945 15392 14087 5281 7712 
17356 2471 16999 17026 3176 9663 16288 9825 12945 
4315 14347 11796 7994 14227 6016 9483 9917 5059 
10427 5557 12751 15705 14702 14280 16531 13044 10008 
14690 5763 3166 1417 16972 2039 9717 14569 9496 
4478 14941 12627 1263 10939 15313 729 4129 10578 
2081 392 15611 14273 15744 17103 14716 105 2086 
355 13311 9636 15934 7818 9732 12133 9779 4286 
1063 6765 8668 16030 12288 17772 4841 16898 12782 
13140 4870 10240 11794 11345 10136 11763 8894 11416 
10734 3035 913 4761 773 5463 6941 2166 11790 
9399 12123 10565 8945 13135 5513 9995 12118 1284 
8345 6327 11876 2593 1729 7040 8350 13173 4747 
17774 2122 4546 1139 6359 9751 6865 12230 4332 
12167 14734 3916 10420 17263 1859 4423 17191 7773 
5476 2401 1517 3062 16928 11610 2481 17439 12647 
8653 5174 1299 5089 6958 15843 17065 9299 6113 
6631 14659 13373 12689 5793 8697 16141 4944 5334 
12728 4829 4140 374 11630 1005 10438 9199 5330 
17539 4043 9007 16155 3164 10661 5286 13037 12176 
4882 9670 7507 520 16554 8217 10782 17189 17202 
9335 2254 13967 3823 16201 6909 5587 1974 7061 
17070 10305 7848 6353 2570 4356 3070 13761 17119 
1984 9423 3289 149 1952 3537 15978 8274 15176 
8314 13866 8476 9817 14343 5144 12357 3165 16027 
4914 14892 7067 12370 10518 5199 11804 7562 2860 
15539 11526 6447 9909 9107 6956 10298 14888 10077 
16106 7552 9488 427 5797 3010 12149 4268 14310 
2621 1394 8078 11852 7065 6960 2995 5525 7909 
14905 1280 3554 3607 12307 9226 17560 6656 13644 
14773 12965 10605 5191 15581 14526 2848 3340 12705 
2877 13841 6691 8376 8084 9455 16482 15847 11487 
9707 12603 15465 4571 6653 13355 9431 13878 5043 
4317 7118 14470 11667 15385 393 3611 9248 14761 
5745 8162 2573 16337 8519 16047 15753 2434 4119 
1638 5693 9396 436 1626 17258 8623 12911 15312 
263 14622 11212 4755 12944 10120 1113 13047 5543 
12641 12062 4545 5812 9403 9990 15372 1154 122 
8112 11844 11994 12948 2400 7567 4871 2139 7308 
8562 4395 6920 8049 3769 11494 17505 11798 14719 
620 3197 5937 94 15157 2701 11644 9081 5591 
1196 9678 10059 15678 12472 5153 5115 3242 192 
3014 12213 16195 6445 1153 10055 16838 2012 6171 
11383 6520 14741 1744 2873 2268 5593 11248 12690 
15017 11111 5389 14308 7166 11119 1682 7937 12501 
391 11243 6654 3386 1959 14602 4911 7372 5800 
6779 17238 16107 2978 14947 11627 10575 17716 8355 
11063 17112 5346 9561 16930 8804 17008 14961 8604 
5282 14098 2909 8153 1610 17833 3068 1594 9728 
523 9434 6649 12564 3584 2238 2175 14458 9453 
1769 13041 13549 12189 15827 6697 17753 7325 6679 
8053 11843 3268 7317 8523 11523 5122 743 5155 
8367 10627 4983 1046 15483 12324 2997 857 3016 
6937 15374 1017 8967 6403 946 8239 801 1896 