# vtk DataFile Version 5.1
Generated by LIGGGHTS
ASCII
DATASET POLYDATA
POINTS 17850 float
-0.00551882 -0.0288674 0.00127243 -0.00398002 -0.0290801 0.00130784 -0.00289151 -0.0292621 0.00128528 
-0.00182936 -0.0293853 0.00127321 0.000163207 -0.0293734 0.00159872 0.00120895 -0.0293732 0.00128434 
0.0022541 -0.0293938 0.00124889 0.00428786 -0.0290728 0.00127237 0.00580025 -0.0287628 0.00133064 
-0.00820147 -0.028249 0.00127323 -0.00710859 -0.0285153 0.00134208 -0.00434922 -0.0280187 0.00128535 
-0.00332617 -0.0282356 0.00124923 -0.00236749 -0.0283207 0.00162894 -0.000451578 -0.028529 0.00128347 
0.000625151 -0.0284351 0.00128446 0.00176866 -0.0283737 0.00138796 0.00322403 -0.0286526 0.00133138 
0.00739102 -0.0285009 0.00128464 -0.010328 -0.027473 0.00130836 -0.00923568 -0.0278344 0.00133104 
-0.00756984 -0.0274297 0.00124978 -0.00617008 -0.0279413 0.00125079 -0.00139999 -0.0277284 0.00126054 
0.00132882 -0.0273001 0.0012966 0.00266665 -0.0277495 0.0017026 0.00358647 -0.0274528 0.00127382 
0.00465697 -0.0279996 0.00135432 0.00553698 -0.027283 0.00127253 0.00649396 -0.0278311 0.00131939 
0.00860509 -0.0280056 0.0013429 0.00991871 -0.0276174 0.00131945 -0.0123506 -0.0266597 0.0013301 
-0.0111547 -0.026706 0.0013079 -0.00666245 -0.0269572 0.00126064 -0.00558662 -0.027047 0.00130773 
-0.00460737 -0.0266499 0.00153306 -0.00353786 -0.0266783 0.00131872 -0.00253314 -0.0272591 0.00133024 
0.000443931 -0.0265481 0.00130835 0.00232743 -0.0267531 0.00133137 0.00446426 -0.0269064 0.00124937 
0.00711198 -0.0268897 0.00129503 0.00903493 -0.0268642 0.00133064 0.0102169 -0.0265923 0.00155011 
0.0115333 -0.0266363 0.0012622 0.0125793 -0.0265982 0.0012738 -0.0138197 -0.0259288 0.00127221 
-0.00968651 -0.0265041 0.0012623 -0.00826837 -0.0264011 0.00129684 -0.00524112 -0.025879 0.00126144 
-0.000865851 -0.0264626 0.00134172 0.00288641 -0.0257761 0.00127319 0.00858597 -0.0258185 0.00129574 
0.013511 -0.026096 0.00127251 -0.0127137 -0.0255372 0.00127381 -0.0111443 -0.0254481 0.00131978 
-0.00927166 -0.0254678 0.00128223 -0.00764912 -0.0255229 0.0012623 -0.00633146 -0.025724 0.00133017 
-0.00457069 -0.0251292 0.00154931 -0.00294116 -0.0251349 0.00130712 -0.00196964 -0.025682 0.00129684 
-0.000953049 -0.0253535 0.00126156 6.54804e-05 -0.025454 0.00124791 0.00178473 -0.0257237 0.00131963 
0.00498381 -0.0252481 0.00127381 0.00602712 -0.0256218 0.00131735 0.00720627 -0.0257272 0.00135441 
0.009709 -0.0256367 0.00133109 0.01089 -0.0257277 0.00134163 0.0124994 -0.0253291 0.00128533 
-0.0160564 -0.0246838 0.00128481 -0.0149411 -0.0250193 0.00128529 -0.0138914 -0.0248846 0.00126234 
-0.0128848 -0.0244312 0.0013304 -0.0117236 -0.0244543 0.00131949 -0.00847603 -0.0247611 0.00171503 
-0.00739896 -0.0244593 0.0013192 -0.00633644 -0.0244987 0.00157847 -0.00535293 -0.024498 0.00125961 
-0.00193876 -0.0245968 0.00127381 0.00126712 -0.0245965 0.00131966 0.00243961 -0.0247435 0.00134254 
0.00921113 -0.0244476 0.00133011 0.0103254 -0.0246801 0.00129592 0.0115801 -0.0247126 0.00129552 
0.0142662 -0.0249028 0.00126067 0.0159758 -0.0247093 0.00130678 -0.0171398 -0.0238602 0.00129684 
-0.0160283 -0.0235692 0.00131913 -0.0140552 -0.0238057 0.00131963 -0.0107433 -0.0238989 0.00129556 
-0.00950517 -0.0242352 0.00131987 -0.00418333 -0.0241684 0.00128413 -0.00305863 -0.024026 0.00129633 
-0.000997109 -0.0241127 0.0012623 6.51886e-05 -0.0241325 0.00128533 0.00198724 -0.0237728 0.00165492 
0.00417386 -0.024028 0.0013408 0.00532307 -0.0241935 0.0013064 0.00726384 -0.0241555 0.00132988 
0.0110899 -0.0236984 0.00131904 0.0122483 -0.0238937 0.00125079 0.0136341 -0.0239869 0.00134165 
0.0150136 -0.0241236 0.00130798 0.0174837 -0.0236025 0.00127381 -0.0180452 -0.0231437 0.00129684 
-0.0168377 -0.0227851 0.00129626 -0.0150148 -0.0228415 0.0012721 -0.01301 -0.0229039 0.00133136 
-0.00989888 -0.0231538 0.00131872 -0.0088439 -0.0233805 0.0012504 -0.00771511 -0.0233604 0.00152476 
-0.00659419 -0.0234854 0.00130649 -0.00502813 -0.0234911 0.00128549 -0.00315568 -0.0229382 0.00128394 
-0.00210241 -0.0235224 0.00127362 -0.00113085 -0.0230485 0.00129639 7.8514e-05 -0.0229249 0.00134165 
0.00264915 -0.022931 0.00134279 0.00377309 -0.0229767 0.00127229 0.00497078 -0.0228747 0.0013429 
0.00625581 -0.0235208 0.00133061 0.00788461 -0.0231463 0.00134291 0.00941083 -0.0232256 0.00126036 
0.0117746 -0.0228039 0.00129588 0.0152347 -0.0230423 0.00128416 0.0162473 -0.0233879 0.00127352 
-0.01928 -0.0222254 0.00127209 -0.0158771 -0.0223059 0.00173402 -0.0140007 -0.0223682 0.00128314 
-0.0118248 -0.0224004 0.00127342 -0.0105373 -0.0221573 0.00131987 -0.00942041 -0.0221474 0.00128452 
-0.00835418 -0.022431 0.0013066 -0.00699902 -0.0222928 0.00134215 -0.00579283 -0.022743 0.00127325 
-0.00448903 -0.022567 0.00127295 -0.00239531 -0.0220938 0.00134076 -0.00066252 -0.0221261 0.00157632 
0.00115313 -0.0225907 0.00127349 0.00607471 -0.0223861 0.00166193 0.00874748 -0.0223689 0.00130799 
0.0100767 -0.0224198 0.00127316 0.0136253 -0.0227553 0.00134293 0.0160481 -0.0223485 0.00127284 
0.0177212 -0.0225193 0.00126109 0.0187615 -0.0226292 0.00127352 -0.0199921 -0.0214353 0.00127381 
-0.0180816 -0.0219813 0.00135242 -0.0168871 -0.021637 0.00134294 -0.0143063 -0.0213104 0.00136304 
-0.0126745 -0.0217507 0.0012848 -0.0113898 -0.0214107 0.00129691 -0.00776207 -0.0214828 0.00126231 
-0.00605236 -0.0216201 0.00130832 -0.00496816 -0.0216279 0.0012623 -0.00326279 -0.0213604 0.00128509 
0.000383898 -0.0217544 0.00135375 0.0021038 -0.0218659 0.00134225 0.00337091 -0.0219139 0.00128393 
0.00513501 -0.0217733 0.00126217 0.0070547 -0.0218202 0.00127238 0.008095 -0.021422 0.00133098 
0.0110187 -0.0218475 0.00131942 0.0120996 -0.0215772 0.00128442 0.0131853 -0.0216941 0.00129502 
0.0143438 -0.0217842 0.00135441 0.0163044 -0.0213141 0.00125079 0.0176331 -0.0213159 0.00127288 
0.0187575 -0.0213537 0.00134091 0.0200681 -0.0215333 0.00129683 -0.0208208 -0.0207024 0.00131978 
-0.0189127 -0.0211354 0.00131987 -0.0177626 -0.0208049 0.00135351 -0.0155561 -0.0212527 0.0013309 
-0.0133287 -0.0208606 0.001262 -0.0122591 -0.0207111 0.00130581 -0.010428 -0.0209449 0.0012608 
-0.00866042 -0.0209033 0.00129596 -0.00679527 -0.0207873 0.00129678 -0.00557504 -0.0206246 0.00128494 
-0.00209263 -0.020999 0.00128314 -0.00099753 -0.0211346 0.00130712 0.00113704 -0.0208376 0.00127381 
0.00225963 -0.0207273 0.00129513 0.00421666 -0.0211833 0.00131972 0.0061023 -0.0212224 0.00134091 
0.00705282 -0.0205557 0.00130793 0.00975492 -0.0210878 0.00127221 0.0108691 -0.0208068 0.00172589 
0.0126529 -0.0206768 0.00167258 -0.0194818 -0.0201366 0.00130836 -0.0169815 -0.0199361 0.00125079 
-0.0159243 -0.020164 0.00130786 -0.0141691 -0.0202179 0.00128411 -0.0112871 -0.0198267 0.00127369 
-0.0101746 -0.0198732 0.00132949 -0.00775955 -0.0203533 0.00124906 -0.00398254 -0.0204673 0.00135261 
-0.00284975 -0.0202352 0.00146973 -0.00122667 -0.020008 0.0013305 0.000116646 -0.020385 0.00133138 
0.00330491 -0.0204549 0.00127291 0.00522326 -0.0203914 0.0013305 0.0062011 -0.0199109 0.00125051 
0.00881501 -0.0205098 0.00131981 0.00996914 -0.0200523 0.00127166 0.0116837 -0.0201412 0.00131967 
0.0137424 -0.0204815 0.00131874 0.0148897 -0.0200915 0.00130836 0.0159842 -0.0203206 0.00153596 
0.0170125 -0.020489 0.00124938 0.0180463 -0.0203295 0.0012847 0.0191065 -0.0201895 0.00127338 
0.0201777 -0.0200464 0.00129596 0.0215421 -0.01998 0.00127352 -0.0217417 -0.0194352 0.0012722 
-0.0204881 -0.0195542 0.00134284 -0.0190416 -0.0191403 0.00126065 -0.0181776 -0.0197415 0.00127381 
-0.0162035 -0.0191212 0.00126184 -0.0146712 -0.019153 0.00128465 -0.0134803 -0.0194161 0.00126145 
-0.0124903 -0.0196583 0.0015447 -0.00887197 -0.0197055 0.00128467 -0.00715473 -0.0191391 0.0012731 
-0.00620908 -0.0197073 0.00131872 -0.00459132 -0.0192669 0.00125059 -0.00354232 -0.0193943 0.00129605 
-0.00245468 -0.0192035 0.00129684 -0.000335978 -0.0193903 0.00164084 0.000685343 -0.0193951 0.00128519 
0.00175729 -0.0197317 0.00130637 0.00347262 -0.0194288 0.00146861 0.00524157 -0.0192772 0.00138077 
0.00714969 -0.0194447 0.00129596 0.00814003 -0.0196977 0.00171451 0.0111614 -0.0191691 0.0012733 
0.0129723 -0.0197058 0.00126071 0.0140064 -0.0193621 0.00131974 0.0159204 -0.0192507 0.00127293 
0.0171911 -0.0194705 0.00127355 -0.0226913 -0.0185304 0.00131878 -0.0206547 -0.0184289 0.00128336 
-0.0183907 -0.0184528 0.00170725 -0.0172311 -0.0189234 0.00127343 -0.0128327 -0.0185378 0.0013191 
-0.0117903 -0.018897 0.00127299 -0.0105223 -0.0187529 0.00133101 -0.00821023 -0.0187957 0.00152434 
-0.00588449 -0.0186783 0.00125062 -0.00351624 -0.018327 0.00126125 -0.00155943 -0.0185771 0.00128322 
-0.000490492 -0.0184313 0.00125068 0.00148868 -0.0186205 0.00151386 0.00262359 -0.0187602 0.00130808 
0.00418539 -0.0186712 0.001273 0.00623603 -0.0187468 0.00134279 0.00795672 -0.0186923 0.0012958 
0.00999945 -0.0187632 0.00134217 0.0122062 -0.0189949 0.00142054 0.0149535 -0.0187116 0.00131859 
0.0173076 -0.0183736 0.00131758 0.0186167 -0.0186025 0.00127381 0.0202183 -0.0189007 0.00131775 
0.0215078 -0.0189798 0.00153583 0.0224748 -0.0188932 0.00124981 -0.0234836 -0.0177463 0.00128494 
-0.0216456 -0.0180857 0.00125079 -0.0196156 -0.0179013 0.00131987 -0.0175823 -0.0179254 0.00127345 
-0.0157188 -0.0181815 0.00128352 -0.0147237 -0.0177309 0.00129657 -0.0136378 -0.0176075 0.00128481 
-0.0113235 -0.0179228 0.0012985 -0.00919604 -0.0181001 0.0013525 -0.00814968 -0.0176291 0.00163724 
-0.00700047 -0.0180585 0.00130685 -0.00580799 -0.0176356 0.00128433 -0.00491192 -0.0182598 0.00129622 
-0.00234634 -0.0178199 0.00129589 0.000501913 -0.0180998 0.00128522 0.003076 -0.0177406 0.00129422 
0.00420843 -0.0175906 0.00129527 0.00519189 -0.0181638 0.00133114 0.00690103 -0.0177611 0.00133138 
0.00890523 -0.0176764 0.00135217 0.0105531 -0.0176011 0.00129647 0.0116234 -0.0180206 0.00134125 
0.0127697 -0.0178048 0.00128488 0.0138187 -0.018216 0.00132975 0.0150846 -0.0175697 0.0013194 
0.0161259 -0.0181342 0.00135488 0.0199472 -0.0176235 0.00130721 0.0212014 -0.017996 0.00129627 
[...]
POINT_DATA 17850
FIELD FieldData 6
id 1 17850 int
5486 3027 16295 5288 3870 10355 12706 16434 1756 
5784 13174 10708 6842 852 10997 16043 6981 7743 
15778 404 2045 17722 6896 6503 3674 16656 11148 
13030 16944 8388 1424 2550 13541 3535 17368 2966 
11988 13959 13533 14511 1739 12530 3677 142 17129 
11926 11544 807 6323 3995 17412 13225 11336 9720 
11455 11358 2762 5005 17337 1819 16968 9340 15538 
12355 12495 14321 5858 8478 1276 13515 7535 10677 
4588 10626 12304 2202 2562 12904 8665 12025 12097 
16380 2384 1541 13472 3601 15573 12164 14798 9674 
8157 2759 510 2408 10573 9625 6206 4744 6250 
13383 8715 7859 14123 17583 1430 14377 11070 453 
9539 5808 7705 2241 6895 13640 324 10264 5026 
5443 9502 13371 1327 11628 7363 13419 13205 17422 
10081 4509 5851 5508 13481 5038 11372 222 4490 
357 1545 5649 16722 13199 17094 11724 1285 14704 
16956 13079 5187 6226 727 16969 13032 7253 2958 
10319 9586 6085 332 17162 4414 6908 7596 10847 
17448 11767 2075 14103 16145 515 12836 6550 11568 
7446 9631 13867 14049 7046 2133 17357 2942 17108 
14957 9810 10441 16313 8917 5429 9887 2475 1423 
9361 5474 3935 173 9229 6566 14616 16132 11480 
13547 12695 1238 15502 1836 2057 16395 7991 977 
8202 5853 2249 2463 2883 8133 17614 10226 11721 
15098 16594 11589 13367 6277 5162 6533 15691 12022 
10622 15908 5671 8441 6850 9832 9747 10694 10445 
9352 16925 16790 4273 15588 11665 12264 2314 11634 
5633 14069 10365 11047 11446 8676 11364 7963 31 
17654 6030 15927 6797 1647 9130 16623 1345 9655 
13188 5002 8172 2316 16707 2377 17670 12621 16149 
6830 2327 5521 10975 4021 16044 3898 6999 9232 
9055 10860 9510 15418 10769 15293 3892 13426 7865 
1236 15246 1454 10308 8038 13887 1258 8729 15198 
10203 11566 14673 11654 351 11592 16157 16771 5996 
2992 4950 4867 13995 8316 2693 8772 7427 15563 
6839 16253 1884 4168 7633 359 14461 5455 10645 
5052 7023 577 7216 15515 14257 8139 1344 3911 
1840 10698 11190 11186 15056 2900 2248 6475 15749 
13109 8855 4711 10581 4130 8479 9994 16220 3640 
13039 11228 6726 1951 15584 6675 6367 128 4178 
6945 1813 5555 3523 2537 9855 13575 4927 3550 
15474 9756 698 6789 11543 8358 1288 9754 7095 
13250 11508 13966 17451 10483 6406 14138 2699 13857 
16734 16137 8097 1467 11995 2235 2691 7709 16320 
1463 9824 17425 2042 17629 15126 7684 3884 7599 
16436 971 16330 5582 4338 10270 17016 15189 14829 
5284 3030 15951 9686 8771 2739 6437 13263 5961 
10592 13729 8963 17545 2889 9284 17694 15423 3566 
9182 8698 6836 17709 666 3693 9429 9380 7771 
11020 14184 7013 10139 10706 9486 7056 13545 10429 
14143 13901 2969 7719 6984 10870 11014 16230 16223 
11380 7058 16571 16114 14030 3852 3724 13767 15226 
12139 11846 7887 1777 13731 4215 1346 11888 15966 
12048 9103 853 10787 6834 5158 1510 13418 12346 
10266 16325 14469 17088 11299 9467 16887 17555 8844 
5801 4754 11083 3281 11966 9101 3837 549 3213 
15122 16509 13337 9005 4901 9614 16478 3893 6689 
2943 5267 16240 7422 4011 5371 12329 7116 4989 
12688 8670 5569 14828 15132 3756 9695 13710 437 
13278 8625 17464 1078 3592 12352 260 2797 5946 
14559 2474 17430 15115 16431 4305 13778 5018 14789 
16588 6804 2902 10681 6148 6172 2251 1805 17765 
14920 2240 13925 13286 6861 13699 5314 8995 7882 
16289 1691 2388 4917 11204 15961 9687 6267 9911 
6052 7340 13334 3317 5377 11396 315 14277 1917 
4299 10927 4919 8635 7873 2800 1764 16809 17334 
9014 5727 16389 12267 6080 14854 10765 17049 16317 
14166 14018 5103 9071 9090 9803 4077 5275 5394 
11907 8406 16000 3525 1903 16678 1854 2825 3510 
10995 79 15318 13897 17755 4860 10354 861 63 
16591 10621 8437 9914 4850 5526 6008 13643 11754 
11708 4372 12754 11434 7456 15034 5850 15095 4078 
8908 9080 8730 791 7910 5421 17104 16952 4487 
5221 1317 3588 1860 13816 3441 16749 6299 4462 
888 5420 1062 2215 14720 15595 5638 1783 11191 
13660 7038 3620 11056 1947 13467 7516 14476 6976 
14325 10207 5375 6397 9251 3748 7296 13458 2197 
1694 17040 11276 11 13705 10329 4674 13665 618 
15088 5843 12786 15043 14185 15021 7487 17450 7916 
10767 5532 116 15315 14275 2731 2682 17562 11822 
14057 7214 10430 14283 7382 800 1088 2025 14128 
16668 1315 6039 5703 8674 3807 6934 1444 13479 
15440 2046 12489 16732 14848 1797 713 29 5081 
10533 3917 13 479 4643 10771 5747 6594 6321 
1506 7087 470 12842 8498 12078 13448 15865 13682 
696 339 12537 932 13049 4629 12625 2683 14189 
11948 14669 8846 6840 9519 687 3295 16184 13905 
8242 12 17815 3049 2963 3993 16088 11235 1281 
10412 15267 5477 10930 5814 2626 6436 1523 12334 
8250 1111 12553 16847 3472 8860 13475 2441 4118 
16793 9060 10923 3839 10095 7397 8820 16875 6565 
6625 13711 13876 7129 12285 6297 6320 5861 7336 
17760 17829 3488 8859 11229 11531 5197 13310 2472 
16978 346 11904 7883 13005 7678 10522 10135 17161 
17632 13134 1084 8032 8710 4851 4604 2357 13917 
10801 16603 342 12667 17423 10493 9749 17479 14591 
15285 12547 11853 11703 7790 4637 17591 6869 12004 
4586 10776 8950 15111 763 385 4291 9592 12240 
11944 6191 5333 2373 11979 2094 6059 8145 2144 
5686 13388 14054 5572 14695 4582 5495 2265 12846 
3418 9224 15873 16013 7319 2287 6012 8785 2246 
104 7072 1460 6959 834 8807 2390 5724 8463 
9105 15512 9804 17532 6915 11117 15561 10996 9856 
8377 15976 5296 1652 8407 10720 10462 1244 13473 
9246 3491 12122 11850 134 751 6575 11369 6788 
16783 4656 5732 9619 2333 14680 8824 2367 15556 
10351 16109 8516 2998 14567 12188 10733 14193 7403 
11330 11664 1750 14080 3953 16750 947 6535 8553 
10069 1893 16735 8683 1981 11618 732 9198 1015 
564 8317 3834 17573 14839 9958 1862 9063 17319 
13297 12474 14879 14949 3152 3743 1583 11588 1710 
8606 3888 7577 2354 14078 12602 6639 3423 6711 
3273 3325 11631 10667 14634 11871 7133 5932 2870 
14492 5164 8918 8395 10822 7485 13092 6967 4610 
401 8446 874 8982 10143 5392 12626 4201 15579 
13062 1475 5837 13051 12604 4229 6154 11991 3299 
14615 5695 1956 11530 14901 6823 2652 9778 6852 
3134 14880 12125 7424 4501 3800 14810 7803 12840 
483 9142 4313 7368 8210 6551 17845 10753 3578 
2896 2530 1019 12369 16853 15982 5859 1526 4992 
5726 12774 15336 10381 6264 12702 14843 11101 10018 
11342 17606 10408 1356 1684 4984 8849 15940 16559 
9275 514 15777 13929 13889 13706 6065 7927 15820 
6093 1686 6390 1633 16021 13213 6184 4139 4555 
5860 1309 11475 6079 12791 9534 17070 14978 12030 
12966 17821 10844 13716 5360 686 10878 11196 5294 
6712 6792 15128 14806 10427 8027 13198 6432 2211 
4173 14735 2721 8565 11158 6532 14300 10352 12017 
15995 2347 6812 14619 17767 11547 16684 11102 17510 
8023 14302 10955 14076 4105 6980 17665 158 9622 
13551 4909 407 7276 7739 3853 11712 2839 2603 
2486 7985 12787 12861 8415 17249 11538 17646 10571 
8713 2414 7534 1376 17260 3174 2368 17529 657 
9051 15204 9751 3039 11123 13372 6909 355 9825 
15617 5567 9930 4605 1398 1185 10695 15481 8768 
10909 11847 2102 1417 17386 3778 13798 2712 9816 
12957 11392 6660 665 7478 16030 3998 10057 9602 
16207 14451 3263 11387 729 1522 2220 5957 17013 
2826 12981 8826 1342 13518 15171 6821 14679 13314 
13320 14607 16927 14474 1516 9688 14763 6542 10738 
1954 909 2645 7824 7237 13831 12768 519 4157 
3135 15340 7663 7507 17465 674 16138 8697 4554 
5654 16621 16926 5427 7756 15130 10208 7690 8956 
15080 280 3856 14507 642 11738 16155 11401 2869 
2306 2295 4870 6855 13215 2569 3189 68 8130 
9201 6746 10826 17203 3862 1302 9897 14251 2646 
9732 16747 4528 4736 16753 2471 5827 10384 8451 
17296 16748 10846 12679 1263 6820 1509 7569 9172 
972 364 4056 7704 4426 11432 6665 6897 5391 
13428 12513 14333 5446 4572 2468 15089 9337 9917 
17115 16971 7184 16548 12705 13477 780 5189 7118 
14975 14731 9620 11836 8096 6449 9828 8002 13696 
1067 6666 10146 12699 8765 2761 15692 9682 8930 
7669 14175 17356 16988 11540 11729 3031 5639 1286 
8563 7264 14552 15371 10949 9355 8233 2874 15223 
15379 5216 3846 6221 12176 7608 16027 7769 6327 
2285 13601 7073 11876 6577 2570 17256 13191 10657 
6043 12793 10712 15695 939 4244 1575 13677 8792 
15176 14765 3495 17442 12215 12088 3271 7609 7643 
17171 13469 3877 14590 1517 11425 3703 13836 3613 
17663 15542 9888 1528 4251 2995 6690 12929 4925 
2937 10187 11668 6051 14359 12509 9795 3179 16500 
2840 10077 5334 7848 9293 14441 12728 1013 1374 
4140 15923 9527 1016 7642 2671 9512 3537 4289 
17072 15539 17065 5129 7055 4407 2257 10240 9351 
11885 4398 8376 4664 5027 11835 7260 8894 15225 
9439 14014 7290 213 11487 12414 12908 16928 9286 
17201 15611 2247 17512 171 11748 16908 7752 14306 
5325 7631 9590 9566 11211 8890 3937 14840 2680 
451 8731 15947 6353 14499 17774 7821 8705 3120 
1426 6828 15064 2848 17785 2588 11598 3365 8314 
12167 5523 11596 12111 5271 3554 8084 7445 12131 
3165 15330 9488 10566 17560 11970 1850 10664 15567 
6509 11601 2655 2617 11887 8008 15839 716 5541 
12203 17505 2843 3159 12152 15472 11968 14545 15436 
6485 2071 13344 9248 1844 6502 6832 14681 11384 
2481 11706 5040 400 5056 12592 11420 15634 7160 
3710 2990 8555 5132 12146 12087 14770 4885 8113 
16092 10480 4093 2979 5012 9396 8524 16315 7369 
10922 3735 3905 773 11119 8784 10575 4043 13878 
2029 15182 5934 9831 2393 3098 6606 13794 10643 
15173 7576 10633 15847 8623 8800 8182 4829 201 
15970 953 1896 10780 1291 3096 9772 5818 15956 
12811 10145 3521 11775 393 13406 8675 15894 5719 
1626 17064 198 4914 16800 3793 2121 8935 4861 
9966 17517 2997 2170 1643 7764 1269 7909 9608 
4436 6956 17109 8457 3232 6193 5071 11797 3574 
8228 7064 1629 7022 9562 7906 3217 7166 4374 
11759 12677 4778 9431 3193 2309 14741 3114 17300 
1962 12231 4960 12742 7147 13424 6633 2041 7584 
841 4599 16127 9937 13762 3432 958 5715 5034 
12564 13343 4354 689 12209 7149 10391 3403 9252 
3533 9025 10638 12307 8329 7205 10089 5172 4518 
12911 272 2701 13068 3621 8239 17836 7317 13967 
14687 7640 5098 5025 7954 11494 10797 16321 6123 
16003 14973 13117 1150 3734 5459 17587 5547 7729 
7526 694 3443 4669 7499 7711 8499 17112 857 
10935 16499 14995 3555 4155 5153 11798 5865 2599 
3864 3297 1116 3631 10193 1649 3989 9316 8590 
5020 14262 9903 9434 2492 1559 10227 15299 4176 
1579 4569 14761 225 2816 10705 11114 3454 10128 
11407 12102 12062 11063 6140 11737 9561 12524 13770 
7417 7521 8465 10046 1988 13700 4842 11023 4483 
5844 12247 11897 3043 1189 6376 7528 10112 17514 
16930 4803 113 2476 4334 6239 3963 11788 10505 
15312 8035 6940 6173 9159 8514 12459 1681 16523 
14602 1336 64 6211 9191 122 12213 11013 6354 
6164 7567 1646 2366 17257 6500 7325 11990 12211 
13216 17199 663 10236 12254 541 14047 1518 896 
9712 4615 6962 15614 12324 629 1716 11637 14424 
17527 13086 11889 5718 1442 8968 15090 2619 12241 
10035 12882 372 8153 11082 3370 12616 17294 13514 
10544 12730 3908 8375 1512 7946 11766 15214 11711 
16804 5603 12479 4822 13059 14827 7840 13562 680 
8547 16769 808 17056 10563 5411 11001 15045 3515 
12917 6621 8053 5154 16648 6128 4416 9096 13021 
1719 5871 12296 1046 5228 8692 13520 6124 17550 
662 11627 3044 3719 4928 16510 3489 17068 15546 
8332 9358 16284 1362 13492 12072 9161 964 16852 
11953 17579 735 3266 7947 8933 13600 4429 7206 
11746 15860 2580 11499 2702 5769 3414 14915 12978 
13539 10423 11793 14582 2418 14725 13244 3417 6894 
11219 6926 4020 873 5078 4427 10829 11720 5583 
4461 2777 2924 6593 5507 11647 15665 2575 7063 
9574 4345 6470 13210 5697 2704 13589 3885 4301 
14787 5833 4526 217 8373 13193 5361 17778 775 
10658 9842 8808 8346 10466 2543 12001 6494 7496 
13099 12629 497 8790 13721 10415 5919 4862 14863 
126 14743 4671 12042 9984 15752 4550 7670 14367 
8631 9359 7862 2205 14717 16881 13436 13652 15543 
16889 1483 14267 9249 8075 1766 3105 11262 17385 
506 12340 10385 15500 2789 1711 4241 151 7708 
13421 5891 7625 14764 1049 8588 12963 5353 9114 
1785 1596 15473 13667 4687 3880 2024 5954 16606 
14266 16370 7980 16539 16180 15796 14110 7714 12973 
7288 13455 9492 72 10548 8300 13162 15016 8809 
9330 4693 7605 10028 9099 6727 14328 3108 3442 
10246 16620 3967 17142 1383 5712 599 5534 10837 
4180 14577 6847 5764 3897 1935 1607 17144 10477 
3144 13751 9665 1746 8931 2445 7781 2782 17071 
6018 4843 11965 550 11726 11062 2914 4441 8230 
15576 16512 7960 17823 1187 3479 7004 12738 12045 
10958 15039 12219 17309 17176 322 5230 10418 9923 
10619 13749 11842 1502 4219 10584 1471 16424 527 
10795 15421 4869 4270 8385 2531 13146 1452 10856 
3308 16381 5842 16877 13303 13143 17286 6393 5832 
6068 7901 11646 9656 8131 17799 16677 12759 16072 
12765 13036 17523 16382 5604 14228 13623 1985 1197 
7940 4544 15177 10 4006 15141 15846 3394 3458 
16259 651 7554 457 13323 13597 96 7437 12543 
8344 14202 15815 7165 8046 11297 16332 10428 8494 
17247 13040 5001 17315 6457 9372 13235 13022 12799 
11116 12886 1057 1678 13139 4690 4738 8166 1554 
4192 3153 13294 6912 8313 6488 2678 4547 816 
261 6800 7858 11298 14639 14456 13960 11125 11240 
8194 14188 6949 8609 7998 9664 11685 6296 3101 
9556 1544 16396 8272 16108 8501 1316 12503 11946 
12681 7944 13103 8292 17565 3316 12341 12005 7332 
11028 11564 16126 13844 15782 13154 6352 14950 6795 
14489 8787 1524 15582 14345 14106 143 7045 10838 
15434 15073 11130 13497 8861 11096 1751 14614 14274 
13543 2123 9637 6548 3415 4071 6291 350 16456 
12289 3002 2505 13786 5374 15699 7545 2313 1204 
15096 17218 4079 2027 8814 15610 10296 7493 7477 
8537 3527 16199 17116 10883 10286 1382 9513 9354 
4948 1036 2795 8461 13353 9744 13739 141 10083 
2538 9324 8159 3933 1680 15243 12637 5399 15250 
17080 14304 8989 8571 1811 6805 15404 11744 11389 
11339 12761 16721 6906 3369 8796 10732 15485 10665 
16006 2153 15853 7190 11283 968 11503 8520 11452 
74 1014 16255 6435 17414 7524 8197 1880 6776 
13206 12939 1520 10376 13261 7474 4735 3512 5412 
9420 5959 13769 1018 5750 11669 16397 12130 7428 
317 14856 13812 2716 2424 10513 14952 1081 16388 
12074 3042 10745 6307 15967 10823 3226 943 9187 
2956 9964 14877 11558 7879 7544 1138 6010 9116 
10078 5194 14546 9992 13393 16696 8654 13814 3001 
16567 9976 2642 1587 3526 16895 15684 14316 2894 
8983 1611 15345 829 1354 3265 17501 4076 9041 
6807 15183 10014 17462 3290 17798 16940 4358 12483 
1479 9377 11872 13641 15168 5772 7370 435 6062 
12160 10414 13071 5203 1704 1987 3150 8714 1549 
2660 11433 17172 14759 10434 15833 2844 1761 8447 
17802 11874 10396 16244 14312 2465 8845 4732 7462 
13463 1651 319 717 17318 10857 17428 11225 839 
7989 3770 8154 12802 6232 16996 6477 2198 8992 
10356 7039 13788 5327 16060 4274 6700 16263 13672 
9021 1853 7016 6783 15289 12057 16568 5295 17723 
2524 12632 15991 6266 15996 3547 12885 6544 7635 
8253 2659 9649 797 7473 11795 9381 2132 7127 
3950 16241 721 6824 17363 4014 3462 6319 6163 
17640 4904 15549 4849 15987 5645 10969 14942 17813 
926 10245 11539 1448 4174 11273 14158 7392 15642 
2500 2726 15977 4601 6978 160 7097 13661 6044 
11481 11309 10697 12207 8206 3149 7861 1277 5984 
14398 16706 12889 4775 8087 10478 10772 3182 8985 
15422 16570 16371 4985 14547 8828 17843 3157 15523 
10562 4384 3235 8004 3833 4475 7250 165 955 
12099 7671 15376 17074 12784 10911 15399 2719 3931 
6936 6683 7419 901 12043 10974 12989 14621 17544 
12496 13692 373 5708 187 3691 215 8102 12771 
14061 3952 8018 2977 4415 7574 9597 450 13046 
11658 10668 8336 8490 4150 13946 12196 5997 5177 
984 3046 4292 15362 5868 16893 12265 16830 6977 
8043 7789 10873 15504 3992 9321 15958 1786 14096 
2787 11374 15701 5520 5950 16802 5573 8417 7318 
4612 16290 17106 16498 17066 15872 2751 5128 9258 
2707 14963 13096 5992 13881 16537 6539 17092 1375 
15409 4380 15158 15683 379 9925 1991 13773 10545 
10917 5047 3817 10353 11412 17206 40 10507 10953 
4923 1722 11237 17227 16378 2594 4969 5958 12323 
6070 13484 11780 11777 12756 14023 6825 7761 6096 
13952 11670 2605 9623 5511 9963 11536 14830 8915 
15946 1459 10806 12244 17800 1578 16726 10852 13595 
13358 14534 14455 3038 7815 17515 16998 16472 2595 
9796 7404 1798 2413 6469 5299 3985 6874 17703 
5152 4303 3948 4636 10987 12727 12318 13998 5568 
5598 2666 16067 6965 6278 16794 16868 17737 17223 
11493 5786 8176 8077 15724 14389 10778 1195 5760 
5378 17840 15228 17458 11545 16922 4954 5424 2715 
9671 4539 6809 1380 9295 15509 10743 16622 4296 
1871 6098 14147 587 4269 4137 12879 1965 6055 
812 1218 12301 9836 11980 1298 13317 11285 12056 
11902 3335 2099 14972 3922 13095 12563 643 14860 
10796 4351 13385 341 3355 7502 3166 9980 17226 
5987 3169 17771 2794 7224 8657 5910 11253 3751 
16857 3960 10577 9511 10646 12795 8703 10301 15907 
10084 12381 6053 5017 13313 12636 633 11916 8180 
3912 16176 6020 957 8603 2303 13399 7510 529 
10707 684 1121 4235 614 7140 7178 16661 2669 
6562 8898 7721 10185 15029 5478 5452 16704 10937 
7816 16203 2984 6563 17816 6990 2935 10085 14660 
9394 7294 16288 8338 3788 15704 11007 12158 14152 
4840 11468 8991 10293 13523 4768 13996 2412 16496 
547 16493 13738 14197 14758 211 14431 11636 5696 
11179 11292 3191 7105 16008 16756 7469 16651 8685 
2911 14808 11732 16818 1325 14129 14447 8187 16885 
9317 4596 9474 17477 17224 14247 1999 5872 1847 
14269 9673 1538 4332 12253 6737 17825 5461 4065 
13362 598 17076 7196 16599 5111 15227 5522 14931 
13379 3028 16827 1892 13760 2510 13511 10620 12544 
15844 6933 9267 5237 3824 2242 12230 17061 14988 
15755 5525 12792 11510 7779 10294 8589 14964 2416 
9607 12737 9023 16426 1267 4051 8611 4367 9428 
2509 11796 1347 1405 268 11331 1063 4527 12995 
6865 9299 15741 11317 13255 7053 4188 5426 2637 
15199 9701 3269 17152 16001 12849 3679 71 11949 
259 13420 16516 5059 8867 15926 10328 17050 6349 
9643 2971 1340 10939 13153 17645 6263 8905 4324 
22 3262 10731 12519 15688 17178 9436 8858 11017 
13425 7420 7192 15811 9061 14 3356 1605 5088 
6765 1440 17772 1841 12745 10060 12809 13247 8412 
6338 12871 8945 1584 13884 9515 8080 17287 1630 
7385 12597 7328 6668 17567 14087 16486 12801 14766 
14261 15381 4546 6419 16898 16341 11656 15284 1168 
11920 638 12385 14191 4052 2933 10557 4152 12945 
161 13219 7182 16535 9633 11103 17705 14234 5759 
3483 10524 2717 6814 9933 2086 8903 8274 16201 
12220 231 7365 1378 6471 11958 3211 6203 7333 
10199 6590 8462 5438 17592 15042 2143 11086 12155 
6768 4542 1024 16743 2771 4433 4310 12335 5193 
17647 13912 17650 9639 16538 140 16807 15975 2938 
10759 7851 16844 2039 1495 16040 5159 5316 2228 
9717 9072 12404 9007 5966 12675 10904 14136 6379 
15943 15822 2353 16939 11287 16399 7514 4944 14997 
14644 4979 4796 12855 1729 12546 4790 15744 15475 
14742 17538 11524 5976 15585 17526 41 8098 320 
8380 5393 3634 8399 5748 6046 12357 10015 8345 
10543 13969 15292 14361 2411 212 6785 1775 14273 
7952 1053 1131 13212 4999 3661 7141 15408 10608 
15554 4468 15313 1464 17697 12263 9670 10553 5218 
9455 15117 16141 15564 15349 9226 1350 7871 12920 
16304 6538 1381 13618 2254 15869 4314 12746 2095 
1012 2506 10661 5173 17301 552 14053 13790 13451 
6355 9798 15169 7707 16318 16891 2365 7827 13621 
15581 9698 1411 8539 15682 16015 7066 7990 11794 
8382 17596 16369 15219 13318 1700 1371 5915 5077 
5326 15001 14892 1916 8007 6413 17493 3402 16503 
5846 1621 15361 1570 3845 5512 1096 16012 16618 
10506 13135 7232 6931 13691 8633 6838 6282 5644 
8343 7844 6132 528 15425 16554 6705 14569 4473 
15532 1661 6677 4008 12382 9469 4471 2338 503 
3164 781 8126 13237 589 197 2348 1912 16582 
15032 11182 2322 8656 5896 7315 3068 523 2865 
6649 11162 6447 11526 11441 11546 10297 615 11071 
10598 3607 3874 7941 16820 8723 1003 9707 7092 
4189 2661 15775 8322 14587 4347 6659 14804 12501 
9500 15937 9237 13527 2061 2502 17713 7747 4262 
15823 10508 3345 6787 15633 6322 1154 8486 1671 
6151 10519 9053 8865 16262 3241 391 9425 5043 
8533 3553 6505 10983 12620 4030 12117 4158 1072 
8100 15597 14803 8467 9737 4238 15931 5467 4662 
801 1632 13378 12943 2877 5244 6147 9909 15025 
4450 469 7638 5916 7591 17485 7964 620 4938 
16515 885 11843 282 14536 13370 2434 6402 9780 
17041 12348 15829 2190 8914 14608 3871 7896 14466 
6415 15479 12221 11697 6791 13025 13012 1682 5586 
11731 482 11243 11841 7108 15120 13736 17330 6991 
6389 16774 4618 6648 15789 9255 7207 10055 622 
7731 16372 2135 196 16177 6003 5009 2264 12472 
12903 17691 7519 10013 1241 4107 10881 2909 16345 
6165 8566 7897 3749 7518 10945 17642 7405 5367 
1041 16997 5678 16836 6570 3359 9974 4994 15260 
12470 1709 9517 427 2978 8852 361 4492 3890 