# vtk DataFile Version 5.1
Generated by LIGGGHTS
ASCII
DATASET POLYDATA
POINTS 17850 float
0.0211014 -0.000136871 0.0019942 -2.10855e-06 -0.0293213 0.00220509 0.00277596 -0.029174 0.00240187 
0.00304678 -0.0287837 0.00346035 0.00477472 -0.0284629 0.00229478 0.00637811 -0.0286955 0.00254243 
0.007361 -0.0284191 0.00193719 -0.00822548 -0.0281591 0.00285114 -0.00333046 -0.0269036 0.00268438 
0.000479608 -0.0282007 0.00259544 -0.00536275 -0.0267504 0.00287462 -0.00171371 -0.0264577 0.00254323 
0.00891751 -0.0277217 0.0019714 -0.0101918 -0.0265462 0.0025713 -0.00267352 -0.0259757 0.00276596 
0.00249766 -0.02654 0.002324 0.00778612 -0.0272658 0.00183937 -0.00843562 -0.0256634 0.0023341 
0.00211067 -0.025147 0.0025774 0.00498832 -0.0252729 0.00259832 0.00706522 -0.0245553 0.00210762 
0.00912965 -0.024552 0.00227766 -0.0119915 -0.0247288 0.00278809 -0.00701384 -0.0238071 0.00230749 
0.00422924 -0.0244025 0.00210153 -0.0168763 -0.0227576 0.00185987 -0.0129399 -0.0237857 0.00223214 
-0.0113093 -0.0238858 0.0025521 -0.0107211 -0.024903 0.00234346 -0.00926004 -0.0245106 0.00244668 
-0.00417523 -0.0233776 0.00222781 0.00647463 -0.0233503 0.00168862 -0.00742405 -0.0225154 0.00249765 
-0.000753964 -0.0240032 0.00206249 0.00862058 -0.0222157 0.00125936 -0.0159228 -0.0223297 0.00231437 
-0.0145032 -0.0215479 0.0020255 -0.0117066 -0.0224521 0.00209566 -0.0100126 -0.0237641 0.00244321 
-0.00880039 -0.0216841 0.00252806 0.00573448 -0.0213718 0.00152319 -0.0102586 -0.0220812 0.00192897 
-0.00443621 -0.0207279 0.00213077 -0.0193367 -0.0210457 0.00131143 -0.00238526 -0.0196408 0.00140899 
-0.0165985 -0.0197439 0.00237146 -0.0147657 -0.0205115 0.00243835 -0.02003 -0.0193802 0.0011954 
-0.00684408 -0.018007 0.0018516 -0.00851007 -0.0174274 0.00234452 -0.00788086 -0.0183626 0.0025057 
-0.0136732 -0.016926 0.00194781 -0.0239403 -0.0163186 0.00172584 -0.0211099 -0.0169262 0.00176902 
-0.00951268 -0.0168064 0.00205191 -0.0218691 -0.0157136 0.00214826 -0.0196588 -0.0154709 0.00192001 
-0.0173561 -0.0162371 0.00162131 -0.0125232 -0.0155016 0.00246971 -0.00833382 -0.0145127 0.00183832 
-0.00731493 -0.0154606 0.00200946 -0.0237463 -0.0149868 0.00189277 -0.0204116 -0.0162327 0.00208131 
0.00229824 -0.0145499 0.00166013 0.00404357 -0.0141577 0.00206808 -0.0249856 -0.0136753 0.00229886 
-0.0143036 -0.0143183 0.00208453 0.00642248 -0.0139481 0.00192126 0.0103485 -0.0139004 0.00184081 
0.00348709 -0.0115793 0.00177048 -0.0266384 -0.0123873 0.00133526 -0.024428 -0.0114792 0.00256723 
-0.0221811 -0.0125297 0.00208746 -0.0150634 -0.0119163 0.00214712 -0.0130194 -0.0121826 0.00165421 
0.00839234 -0.0132538 0.00205541 0.00948453 -0.0126267 0.00217347 0.0106623 -0.0128865 0.00207634 
-0.0131997 -0.0107277 0.00179623 0.00675643 -0.0110785 0.00276362 0.0122086 -0.0121509 0.00210119 
-0.0235188 -0.0103891 0.00211809 -0.0215787 -0.00953221 0.00138445 -0.0189754 -0.0108822 0.0021706 
-0.0157593 -0.0109721 0.00241516 -0.0120805 -0.0109761 0.00159508 0.00696417 -0.0113427 0.00160812 
0.010536 -0.0105609 0.00192841 0.00739903 -0.00954524 0.00179525 0.00936255 -0.00979152 0.00226161 
0.0121616 -0.0108983 0.00224727 0.0128412 -0.00993549 0.00233737 0.0140074 -0.00960117 0.00234849 
0.0234907 -0.0100746 0.00148797 -0.0185276 -0.0093417 0.0018134 -0.0162919 -0.00993689 0.00169734 
-0.0152622 -0.00946036 0.00192204 0.00861991 -0.00902724 0.00227599 0.00935494 -0.00824786 0.00187662 
0.0112689 -0.00869816 0.00245799 0.0163063 -0.00943377 0.00230593 0.0222022 -0.0100025 0.0018457 
0.0269709 -0.00903742 0.00159516 -0.0232249 -0.00811191 0.00140167 -0.0203052 -0.00806518 0.00210305 
-0.0158896 -0.00840381 0.0020221 0.0073382 -0.00814113 0.0020466 0.0104413 -0.00770316 0.00246009 
0.0137296 -0.00779684 0.00232906 -0.0214739 -0.00706266 0.00203909 -0.0186215 -0.00746042 0.00158999 
0.0115025 -0.00751593 0.00208935 0.0125928 -0.00778269 0.00236677 0.0170208 -0.00841221 0.00214358 
0.0178507 -0.00688106 0.00194782 0.0201508 -0.0079849 0.00185499 -0.0224379 -0.00542431 0.00162952 
0.0133483 -0.00630405 0.00244775 0.0147533 -0.00587871 0.00216431 0.0160659 -0.00712468 0.00185092 
0.0226063 -0.00657461 0.00175566 0.0276299 -0.00425809 0.000421354 -0.0168838 -0.00639826 0.00201347 
-0.0264119 -0.00600288 0.001937 0.0159709 -0.0058785 0.00216707 0.0242201 -0.00485715 0.000910758 
-0.0229953 -0.00396447 0.00187591 -0.0250001 -0.0036318 0.00241134 0.0162734 -0.00424413 0.00198797 
-0.0210571 -0.0027186 0.00197751 -0.020501 -0.00379466 0.00162557 -0.0187894 -0.00295315 0.00165013 
-0.0156616 -0.00255963 0.00162382 0.0233441 -0.00428484 0.00166481 -0.0187299 -0.00146587 0.00109714 
-0.0146202 -0.00189833 0.00162582 -0.0212534 -0.00107833 0.00198774 -0.0176654 -0.00172165 0.00160714 
0.0171878 -0.00247117 0.00233097 -0.0271868 -0.00126096 0.000997664 -0.014647 0.000264124 0.00143253 
0.0256965 -0.00110057 0.00135199 0.0274819 -0.0005646 0.00182467 0.0292085 -0.0017409 0.0020155 
-0.0293246 -0.00062774 0.00186695 -0.0211992 0.000168471 0.00201318 -0.0135861 0.000713422 0.00147609 
0.0163551 -0.000184184 0.00219429 0.0268118 0.000564308 0.00210049 0.0294087 -0.000789989 0.00297702 
0.016819 0.00124356 0.00176559 0.0198391 0.00119542 0.00218974 -0.0293831 0.00185897 0.00222051 
0.0240551 0.000529927 0.00198521 0.0265393 0.00166426 0.00177754 0.0290638 0.0026708 0.00178464 
-0.0279672 0.00271216 0.0022425 -0.0222128 0.00120731 0.00219523 -0.016948 0.00311455 0.00216815 
0.0155164 0.00192308 0.00217 -0.02172 0.00257875 0.00189547 0.0188316 0.00199271 0.00183848 
-0.0158364 0.00570095 0.00123761 0.0140118 0.0040969 0.00225723 0.0173201 0.00461535 0.00211169 
-0.0131595 0.00543839 0.00180409 0.0086555 0.00427627 0.0016947 -0.0227597 0.0059638 0.00192685 
-0.0192761 0.00454795 0.00143911 -0.0189874 0.00531962 0.00221155 0.00603662 0.00434875 0.00156599 
0.0171632 0.00573742 0.00203952 -0.021121 0.00547317 0.0023584 -0.0151959 0.0064942 0.0017177 
0.00260527 0.00571913 0.00242476 0.0103153 0.005944 0.00186316 0.011861 0.00622603 0.00190234 
0.0130809 0.00600747 0.00192591 0.0157608 0.00619397 0.002121 -0.0185124 0.00676216 0.00190508 
-0.00588038 0.00755562 0.0016028 -0.00100966 0.0078567 0.00195123 0.00393465 0.00672416 0.00236006 
0.0121408 0.00737379 0.00200106 0.0144692 0.00730312 0.00193251 -0.0223054 0.00703307 0.002071 
-0.00239337 0.00907003 0.0021511 0.00623095 0.00832806 0.00209519 0.0071804 0.00767795 0.00204302 
0.00939713 0.00755646 0.00206067 0.0110264 0.0071226 0.00214955 0.0155607 0.00769021 0.00212016 
0.0190489 0.00818016 0.00125932 -0.0167267 0.00802108 0.00170793 -0.00601191 0.00973521 0.00165769 
0.00114299 0.00900931 0.00171766 0.00426419 0.00893252 0.00234148 0.00581402 0.00937746 0.00200983 
0.0145025 0.00847656 0.00208848 -0.0203141 0.0084885 0.00164699 -0.00883538 0.0123822 0.00151863 
0.00360782 0.00990678 0.00251991 0.0110728 0.00915419 0.0018437 0.0161019 0.00879619 0.00182329 
-0.0200269 0.00988899 0.00185229 -0.000950742 0.0104588 0.00157648 0.00147408 0.0115294 0.00132477 
0.0067578 0.00956433 0.00263834 0.0117476 0.0102756 0.00204391 0.0248468 0.0086583 0.00207389 
0.000951287 0.0124879 0.0019346 0.0027263 0.0127679 0.00150385 0.00708546 0.011034 0.00250862 
0.024928 0.0113824 0.00195061 -0.0189973 0.0118243 0.00223336 -0.00727601 0.0134552 0.00228145 
-0.00297414 0.012179 0.00160937 0.0082567 0.0125785 0.00201572 0.00857431 0.0113695 0.00193777 
-0.0173143 0.0119986 0.00170733 -0.0165247 0.0128503 0.00183338 0.0107348 0.0129051 0.00187737 
-0.018746 0.0131286 0.00226706 -0.0143203 0.0128593 0.00127782 0.00398563 0.0126389 0.00164642 
0.00915785 0.0139065 0.00238719 -0.0224493 0.0138564 0.00148697 -0.017471 0.0134021 0.00195452 
-0.00670709 0.0140484 0.00402204 -0.0197748 0.0162917 0.00181545 0.00423473 0.0160098 0.00223541 
0.00586303 0.0159417 0.00264111 -0.0168081 0.0165769 0.0021121 0.00313909 0.0166556 0.00241319 
0.0120959 0.0165011 0.00248503 0.0244756 0.0160381 0.00174329 -0.010737 0.0166307 0.00188623 
-0.00985494 0.0161528 0.00225758 -0.00172642 0.0164669 0.00230357 0.000181057 0.017046 0.00193421 
0.00190235 0.0166913 0.00208059 0.00457154 0.0172181 0.00199753 0.00580901 0.0171123 0.0022295 
0.00924551 0.0161814 0.00196022 0.0163616 0.0169997 0.00149594 0.0203078 0.016448 0.00242957 
0.0237406 0.0171142 0.00196213 -0.0165252 0.0178496 0.00185315 -0.0149346 0.0181276 0.00136011 
-0.0125956 0.0177204 0.00218557 -0.0113512 0.0176235 0.00207737 0.00112455 0.0176186 0.00213291 
0.0106124 0.0179648 0.00170399 0.014355 0.0180438 0.00180509 -0.0137 0.0181907 0.00168396 
-0.0114732 0.0188601 0.00163189 -0.00772145 0.0164794 0.00203927 -0.00482436 0.0180488 0.0018432 
0.00394406 0.0180591 0.00184366 0.017037 0.0180928 0.00145135 0.0203096 0.017392 0.00189294 
0.0214498 0.0178839 0.00170679 0.0226734 0.018701 0.00206206 0.00280334 0.0196518 0.00184752 
0.00543477 0.0207016 0.00249748 0.0106189 0.0193242 0.00212895 0.00776006 0.0195813 0.00197283 
0.0120389 0.0203599 0.00265632 0.0150523 0.020704 0.00227031 0.0173057 0.0211414 0.00187246 
0.00417864 0.0210251 0.00167425 0.0105872 0.0205542 0.00200429 0.0167374 0.0221035 0.0023421 
0.00273222 0.0222263 0.00212149 0.0082003 0.0223344 0.00194035 0.0119307 0.021362 0.00197583 
0.0129541 0.021895 0.00215317 0.0150904 0.0219842 0.00212908 0.0187319 0.0225688 0.00215332 
0.00168759 0.0236641 0.00181828 0.0108016 0.0230139 0.00220064 0.0138455 0.0234949 0.00231533 
0.0171394 0.0231981 0.00252635 -0.00559387 0.0237931 0.00156811 0.0119705 0.0232554 0.00256425 
0.015051 0.0240767 0.0024528 0.0163765 0.024039 0.00246022 0.00387593 0.0250547 0.00187645 
0.00522026 0.0250177 0.00184599 0.00893054 0.0237794 0.0019992 0.011465 0.0250947 0.00215262 
0.0126553 0.0244468 0.00239956 0.0156431 0.0247688 0.00319441 0.00105551 0.02506 0.00187543 
0.00627566 0.0250686 0.00158976 0.00874073 0.0263725 0.00166293 0.0129841 0.0264035 0.0018567 
0.0147374 0.0253633 0.00279615 -0.00296706 0.0263541 0.00158404 -0.00732919 0.0272567 0.00113311 
0.00205091 0.0266721 0.00178549 0.00699132 0.0274717 0.00189317 0.011171 0.0272043 0.000824373 
[...]
POINT_DATA 17850
FIELD FieldData 6
id 1 17850 int
6823 5625 4230 14509 6893 5773 864 7283 559 
2023 12692 6292 10600 17307 510 3023 2630 4552 
2797 2786 10457 8082 943 2445 2378 6180 7751 
11262 10739 10281 264 3579 2777 1438 15502 627 
17695 6365 6581 3696 10660 5274 1284 16871 4672 
6589 16220 7733 4404 3137 9076 2202 5170 12633 
1457 16330 15397 3691 10788 8584 168 13985 16573 
11976 17088 13927 10669 4318 11455 5368 9897 11823 
12855 7450 2205 8039 5530 4430 14436 14113 8248 
2686 12789 16442 14836 5446 10763 14055 15630 12070 
7555 15092 13316 16491 12905 2441 11380 11424 7978 
8859 7124 8080 12810 3228 14504 9634 15192 3049 
9868 11426 6391 6065 6457 10604 14397 13100 11932 
1240 932 3106 6488 15503 13408 5793 4510 16186 
8540 15509 3304 1348 8792 2470 458 395 7855 
13220 4266 2440 2157 6005 8591 17246 6598 8685 
7016 9416 16785 6772 12434 15864 12188 3700 17081 
4275 12786 14330 16281 19 12922 14332 2510 9669 
9535 1783 8397 6892 1515 14152 12610 5012 17632 
10459 7741 9702 2873 2541 1253 11162 16210 13264 
2604 7285 8858 3020 4128 15855 16161 531 11605 
10846 17836 7381 17810 8383 9302 12750 2145 12002 
15188 10037 6335 16004 10963 11039 4393 1031 5873 
16650 17580 15101 2387 6494 4822 2695 1795 16423 
15579 6734 6917 13167 17607 15403 3469 17336 13827 
7228 9523 9596 9488 3318 622 13892 14528 10484 
14995 3171 12357 9506 14708 12105 16503 15634 7395 
4314 14256 16015 10976 13333 17008 1613 2581 13920 
15678 5934 7941 12263 9082 8359 6905 13520 5245 
307 5512 12082 6441 17825 4841 17319 8323 5091 
12324 15382 17681 14260 15689 419 14105 8696 3808 
6621 13522 13947 2937 5640 2196 13784 6679 15776 
10624 2525 9299 8863 14552 3998 11887 11788 16252 
11687 3610 949 9905 1451 766 2139 12616 5460 
4673 11358 1171 666 776 7845 3314 7512 4862 
8988 7858 11187 14611 11800 4705 15936 7114 10173 
1843 2234 10270 9620 8196 8370 1639 7629 9490 
1677 3471 3468 12219 3161 10425 4391 8512 12107 
2028 1000 761 5663 4564 1642 1008 12202 12245 
11915 13643 7822 11553 15878 14312 12005 10702 3436 
2418 3566 12622 2891 1659 11772 5423 8973 8887 
12940 146 13856 3648 11258 1356 15573 2999 5455 
9729 7014 5224 8488 3869 2265 5092 2054 10177 
8794 7122 9073 165 3047 11672 9283 16006 5331 
17360 11423 11825 652 5353 2652 7314 12755 10401 
13353 7998 12495 13895 16885 6640 7181 9615 9603 
10549 11561 3201 5574 777 10798 3590 3024 187 
10211 7189 12709 8658 12137 15720 3308 5219 12624 
12777 7256 8009 1985 12566 699 13326 8674 8557 
16019 7534 9921 3084 2384 15065 14615 16243 11647 
11421 9206 4596 8000 1461 9749 6438 11480 7880 
8496 7496 11319 17622 17693 13486 11330 7606 11669 
9944 13868 630 11116 15748 7031 12576 13449 3423 
347 1980 15665 15432 12788 11888 16864 12804 3778 
6293 3505 5143 14433 17077 13159 6343 16000 7585 
3591 14268 1391 17323 3450 379 2049 15022 2007 
15054 9871 12010 11593 11877 8306 11968 8579 12269 
6850 17366 10 12179 9756 17379 1497 922 14633 
16479 3870 15595 16918 16060 5915 6207 13482 11670 
10667 5150 2775 9346 4772 12008 15875 4585 16953 
818 15558 13403 11317 12233 113 12420 11722 2435 
1854 9762 1384 13347 11444 1583 13322 12195 4908 
15240 13504 5587 3329 12221 4051 3440 12689 15655 
5149 7231 17567 5220 6787 4077 5440 5789 10639 
8226 6693 1779 4078 11901 6384 2319 16297 6505 
12764 9605 2949 14842 11197 7162 12992 7525 14021 
6229 6388 1897 8994 1208 603 809 73 13186 
12579 15958 5481 1831 16531 6663 4272 8642 17029 
5595 12367 17520 12177 2363 8758 15275 15627 10405 
8284 2576 16335 12567 10703 2983 15716 15371 10907 
15152 16718 3128 14309 4703 5199 3410 9505 10979 
12278 2492 14213 15606 6862 1335 1529 12740 8294 
41 14381 15745 13796 7610 4290 12602 4015 764 
10294 9263 9853 3815 13248 7128 4439 7749 12102 
3987 12372 16669 7559 1806 14540 960 1261 2070 
3938 1249 17241 4023 3289 13163 13132 15886 13627 
17419 1148 8259 17797 8746 11442 10524 5806 278 
10683 13433 9079 4364 7041 15656 11656 12655 6607 
17697 13530 814 16464 12126 3864 84 16029 10980 
3996 15905 4110 13662 10753 14352 17729 9147 9955 
16514 15769 15946 17407 9019 12021 9816 14682 11983 
5906 4918 10252 3698 6121 3701 8926 17326 12813 
17605 16806 7287 12143 16261 15078 12249 4269 15967 
10554 15528 8697 17696 12593 5155 10326 13236 14769 
10372 10451 16345 882 11931 9143 7769 9262 16756 
5831 12734 2997 15471 9919 14059 5298 4852 7064 
5135 4837 7327 1569 14628 13479 16786 266 11368 
7264 6985 6948 12888 2496 17590 10196 8216 5325 
4236 5647 8235 616 17127 14585 15147 16635 6891 
4658 5496 15384 3189 722 14700 8299 352 7812 
3771 6748 9107 2172 1918 12462 8741 13074 17335 
14710 8552 3961 5381 4713 14139 313 769 6516 
6736 6760 17782 8482 289 11284 4191 13587 9672 
11843 10623 11398 5189 3150 5407 9763 5008 1565 
5484 322 10302 12228 10233 16151 6747 5232 5605 
782 2954 2956 11126 12759 12555 7177 1132 4828 
6301 3733 376 2388 1951 12147 6881 1227 1483 
4168 14671 3484 5707 3406 8028 9473 11542 7357 
8835 3841 2863 5746 10879 8417 8765 10317 12252 
12410 10533 184 7527 11031 11576 5210 2060 6815 
16234 15578 9994 5809 5355 1163 5395 13772 9987 
12656 16139 17530 1746 2222 5359 17581 11228 4038 
14940 13263 1938 14869 1963 2286 8698 11058 8479 
1623 12264 5070 7385 6386 11252 6304 7146 9232 
6323 9274 1140 6944 9560 6666 12828 9708 6084 
4993 4208 1070 3463 10570 11239 9187 17060 2184 
4501 1970 2109 14071 11717 16134 16950 16801 17805 
9595 6667 11971 7868 17291 11652 2327 1194 2690 
11006 8094 145 10418 1739 3744 14232 17310 12047 
3048 6530 2500 6778 17226 16042 14447 9652 7862 
6261 1409 8134 11301 8413 9887 13974 15602 16087 
13720 10319 14957 7678 11413 15661 6174 7265 1217 
12035 4754 15311 8615 7623 12153 14490 14022 7533 
16332 15139 9767 4886 11847 16289 17447 7866 17392 
10534 15576 5692 5194 11778 17206 991 12821 8777 
158 7796 4458 12923 9339 2651 12399 4240 5778 
16837 1830 725 2760 8047 12226 5097 2824 14881 
17481 3728 10061 4932 8130 16558 9216 12014 17804 
1147 5542 9064 6908 16647 11315 8600 10195 15440 
10876 8797 7520 15961 10708 4154 9836 11068 7112 
9637 8011 5157 14300 6573 10612 11861 1287 1141 
15663 5275 1197 12048 14373 16778 525 13495 7700 
3392 13258 14856 17353 14548 13438 7969 16424 10135 
11577 16193 4449 16382 4785 1276 10445 14243 10673 
16901 14634 2815 3355 15140 5527 16301 9029 16032 
2383 4864 1343 5347 10136 15000 6806 12182 11329 
4748 227 11408 3900 14751 6109 14989 17723 1888 
2488 2648 10140 4956 12411 4161 16017 3009 3374 
7891 7204 5303 16109 5725 12530 7140 10920 3486 
4532 17677 10239 9467 15431 3402 5851 9245 7115 
5929 2439 10638 3840 7242 4636 2428 8097 426 
6162 15601 16693 10172 5830 6022 6427 7170 4986 
5961 104 9838 12422 15407 10148 11635 4422 6791 
7217 17700 562 1433 3903 5026 12493 16863 308 
13890 5259 16607 161 8635 4584 6546 7770 3780 
6336 17157 6203 9169 10443 12381 12908 14969 3278 
3298 4089 3966 3993 7345 15637 4397 13471 2347 
17342 14181 15917 118 5638 13545 8530 9563 8456 
5732 2237 9977 16810 15001 7841 9651 15166 7613 
276 15918 7875 7262 10049 14241 4424 4131 8524 
14347 17645 6837 11135 2160 2736 16962 14460 3361 
952 13121 9080 4255 2025 1941 6266 12585 9831 
16779 1218 6429 11060 7455 16683 10494 11295 6803 
5342 10569 3882 4586 451 3277 2233 3230 17002 
4578 3498 2390 7673 12500 16919 7792 15487 1110 
11216 17263 792 6208 16364 10952 16166 2817 10768 
7323 7211 16921 12541 6369 7798 17660 5438 2813 
9457 5657 10644 2945 5979 6200 15046 13401 8070 
11895 8435 4360 14500 16995 12912 2414 11585 5307 
5629 1516 4178 3483 8629 15097 16762 10932 16093 
14179 3376 132 5392 13680 2673 10371 5131 8354 
6776 2294 5178 10508 7636 15453 6644 3542 10560 
11296 17544 12302 910 8527 3478 5270 11325 12473 
15817 17150 3078 1807 11438 11659 8560 15331 17410 
5989 3284 2601 2565 12430 7547 14065 1477 3159 
11839 5346 6993 3334 9399 9555 1263 13932 12186 
3802 9869 5491 8048 3005 10519 4692 7324 2909 
16886 14070 16344 11461 5584 16084 893 15957 14115 
17506 14731 9577 15535 11731 5263 15866 13207 14180 
100 13362 14874 14320 13196 14782 9497 5334 16624 
2479 16148 12924 10871 4813 16478 14249 16528 1802 
13343 16705 2870 2106 13841 1128 12644 7896 14978 
12746 17600 13059 5524 16947 12933 10706 17219 7881 
8905 7359 7154 7643 17453 4561 13093 8968 17026 
15123 1421 10774 11056 10787 17638 4938 11546 14808 
2763 10661 10052 8528 13531 6991 17494 13029 9199 
7577 410 5323 17059 16450 9515 10021 14195 6095 
9119 11032 15380 7405 9438 16796 17766 10789 1972 
10761 16358 9998 3371 11313 12494 16494 8894 4468 
14196 11774 10130 2469 6481 12549 7864 5994 336 
872 11557 5080 17271 15869 1013 7067 8884 11826 
7905 8287 8694 9075 15425 6513 729 783 10491 
1334 848 13996 8951 8867 233 2610 5651 11875 
16836 5637 10116 4132 10566 11780 15387 17502 14294 
8543 14410 7109 10275 8083 3473 2768 1844 3165 
14421 4317 17503 10048 17732 16179 11275 8089 8545 
11347 7510 5849 11713 7244 11938 9387 11443 3533 
3613 3580 9159 14170 16038 16709 2727 10298 17833 
8169 4911 2494 5338 15587 17763 3060 6051 13153 
15746 16061 7030 5613 12162 3670 2352 3989 7760 
14857 8074 1464 6347 3263 10288 10110 6485 6422 
8218 3427 3199 1562 2066 14845 15723 4603 3574 
3386 9235 5198 3481 3848 1984 13803 5125 2628 
7731 3036 13730 4217 10565 1835 3741 2980 9629 
5488 7329 1788 3740 1189 4492 11869 4064 6782 
7844 5108 6495 4591 11137 1078 2773 11257 4896 
4192 1821 5924 5094 1232 2251 5240 924 5498 
8924 5643 10417 1552 3866 9180 3216 3306 11982 
7795 9718 3624 7461 7498 706 5505 3375 6830 
810 9371 7389 4209 3363 5031 10886 2659 7715 
10815 15846 4878 4660 4732 829 1532 4000 1695 
5764 8808 11174 672 81 14715 3609 7660 10677 
1329 9923 14000 13620 6629 3105 17357 2005 8400 
17834 3898 6357 17092 4630 16671 7810 15041 8484 
15852 7210 8594 16065 8659 6019 14069 6209 4977 
1554 8781 1666 5019 12328 14854 6869 594 16379 
12551 351 2505 11745 17398 2892 8870 8072 16940 
5006 16952 16469 17394 8136 107 8541 16316 6571 
16760 3139 1057 5048 11446 11188 2008 10022 6366 
1987 7460 202 9055 12280 8585 13973 3143 6106 
939 5903 16487 10947 3914 3597 4816 11077 5648 
6741 4604 17536 14106 10807 7915 6026 4904 9820 
6519 8377 10715 14689 12661 13990 13493 5503 359 
12403 12304 17378 1076 5492 14153 3364 2221 6553 
1478 339 15797 4937 12582 8606 14357 7216 7441 
13792 3099 6130 2744 12654 921 10574 1022 2618 
14625 15884 14928 440 1804 8819 16965 12618 3810 
13022 4767 12332 15083 3544 5578 14525 5529 10097 
17399 17423 14717 15930 14789 5856 11130 1877 10697 
3752 7353 5276 3367 16805 14568 16976 5839 53 
13270 3819 7912 6018 10903 13695 12545 4068 14414 
8537 2966 12657 10586 4388 16580 45 17267 7989 
9607 13742 4730 2133 8772 10933 7823 9655 13472 
13269 5889 17611 14372 12851 5519 8878 10888 8651 
4190 9314 14035 10160 12960 11388 14987 5061 15907 
11905 1380 11803 15088 10398 13755 8641 7765 15247 
5883 9103 16045 13897 16287 5964 14254 14129 8461 
8882 7580 5138 16400 1223 11827 5769 8664 6555 
11454 8688 17478 11959 8801 15584 3460 5151 10805 
17615 670 14543 13146 16697 13788 2925 11396 10861 
11071 10713 11842 17760 49 14109 3042 17717 16255 
4913 8971 1099 12594 3407 1325 10559 11418 10695 
14614 3147 10258 4477 8934 6289 14404 10423 3487 
2189 11814 6172 1491 9759 14184 9636 2103 1370 
3046 9089 9168 12478 5183 8868 1054 8454 3344 
304 6810 17699 7703 2010 15605 1742 12190 1475 
4365 460 9139 16249 6593 7599 14976 3623 8855 
13687 14556 5935 4594 7763 4979 5295 12866 1195 
8959 12817 1213 3255 3683 2598 12056 12919 14013 
15444 9227 3775 12413 7659 9939 4342 15658 5833 
14794 10353 606 2664 1063 17829 2046 16008 7793 
12519 2355 14473 11764 1597 1766 7975 11855 13776 
10395 10212 11863 1133 2992 5572 2475 15093 5555 
5740 6271 15727 7476 9969 4453 15888 11464 4602 
14862 13 1030 4742 918 14453 15856 16098 3766 
5376 3785 3594 12373 10272 7860 1612 983 11953 
5898 10439 9713 4563 6372 6588 17665 2253 13020 
1678 9910 12743 9954 12453 1929 2594 5027 11651 
17628 2433 16753 13519 10209 3146 1143 9051 8428 
12964 12499 8895 750 10510 13227 15327 17144 2841 
6797 3712 825 789 9183 16748 8434 14668 17595 
5060 8732 6938 13790 16822 7579 7448 11390 1267 
17018 4299 4880 2881 3896 16253 9379 4582 17525 
11906 7626 4970 16465 17347 15272 7596 5090 11253 
17170 17047 1238 1015 17796 14999 195 9920 13411 
228 14606 14823 607 1036 16197 17582 2310 7363 
2177 17110 4556 3033 9300 16974 6547 10429 17444 
11819 15848 9363 16674 11681 2330 1020 10170 14927 
14343 6697 9898 2587 15466 382 5211 3913 3476 
17192 4688 16129 7661 12634 17820 11293 17070 7638 
8021 470 7305 6020 17813 7820 586 1038 6723 
514 11667 11862 10051 3855 2923 11675 17752 3138 
6883 5931 6562 16708 7155 15672 12057 16905 575 
11728 6575 7942 5854 15842 2940 1115 13813 13689 
1465 6111 1349 13397 8087 7340 7192 7578 2223 
5734 4731 3417 9149 11501 7631 12643 10751 3538 
8567 5158 15340 14480 15149 16538 7008 9188 6725 
135 3889 1389 11587 9017 11195 15443 4884 11802 
4136 14377 14554 13346 9776 9163 17437 5326 1372 
5431 1102 15912 2865 7691 5905 103 13453 5951 
4611 5642 13670 16517 12016 5970 4130 14714 14691 
14244 12312 9579 3232 11757 796 2308 13151 5655 
5021 6625 11865 7055 12604 6459 11942 2476 15650 
3927 17790 14369 5478 15955 8366 11400 14521 14977 
11244 16605 14506 16120 13065 13810 225 9531 15761 
11697 14719 5404 16928 3601 14311 6754 10747 8100 
1350 6092 3499 16948 10017 11739 8881 10038 11548 
1379 9843 5010 1320 3631 13332 14953 1228 12479 
2084 17473 11627 2595 16548 5191 16850 11532 1246 
3066 10832 1411 12058 1519 4953 13355 1155 14136 
12248 8669 15529 4307 5241 4819 3184 15833 7251 
11547 14272 9507 9576 9052 3759 5523 9650 3554 
11088 12241 1671 1652 9061 4699 13704 10432 11742 
11985 14864 8425 255 4517 9203 5844 7375 11691 
17001 9671 14919 781 11280 3037 13592 10460 7350 
4870 14010 10156 16937 4344 15614 13567 4762 2226 
4794 10515 800 13921 9657 5785 15281 11993 7426 
6974 905 10055 14621 3111 3019 9410 7974 4049 
10199 4787 12527 4354 17768 11787 3377 14505 13277 
16643 13215 10590 6574 5442 1978 10412 4944 2840 
2832 14968 1209 9966 13879 13638 282 8563 7221 
14370 15374 12782 5174 15564 12839 16660 7800 14518 
12890 12049 4281 5899 8081 14931 1894 15648 10759 
12954 2284 14385 9378 10756 15375 14205 16437 12678 
10890 13158 3384 13698 8739 12442 6403 7551 7976 
16927 10512 17542 10060 15973 17585 10605 8380 15076 
1825 54 10741 16451 7407 14665 9364 7207 12997 
12108 12103 6814 15082 15106 2135 5476 7339 8457 
14613 4749 10465 15266 2746 7687 16971 10278 9698 
12956 12871 10635 13987 5960 4329 3207 3173 2128 
2365 5790 9711 12684 10527 3324 16985 14599 6178 
15120 3044 866 13502 11560 579 4805 14701 417 
16946 4264 9825 16501 8468 5991 5521 14996 1183 
485 4156 567 8103 16177 14659 13336 6259 726 
3632 16107 14619 1245 1550 8350 8604 6828 13534 
7571 4442 17795 3017 14936 2947 12067 1446 8618 
8237 7202 11121 4276 4865 12024 12369 14921 17126 
12751 11815 8 2036 7953 8041 1300 1976 1035 
11054 17526 1029 9584 10337 8834 8547 15926 9312 
4386 2722 4473 6254 15244 4350 7249 2312 7968 
12600 1706 10900 9601 8896 8879 14859 5930 5190 
2661 2434 13198 6647 4019 1039 12647 3745 1959 
5205 4147 3697 7325 7870 4569 1166 8163 12448 
4498 4022 1594 3432 9243 4200 10475 535 12745 
8981 11609 5577 263 6426 9624 4409 4043 10650 
15328 3063 1084 5719 6554 17348 10321 676 1117 
4719 3530 6123 7331 10835 3339 10688 9298 4616 
6520 2547 3635 9431 6713 9165 3676 14930 13390 
787 3022 2001 5885 12584 600 9285 3605 206 
6595 697 524 6083 3748 5171 6273 5500 10024 
6896 5534 3541 5116 6608 4520 1601 2969 5305 
1098 8491 1447 17718 15354 14626 3600 11069 2682 
311 12765 511 8766 10216 17706 6444 4869 4948 
1851 5808 12698 5986 9485 14577 1881 14288 3526 
1345 1933 2200 321 10072 7683 11783 9950 3761 
1485 4614 4234 2022 2698 4479 5374 1200 12713 
15460 9236 10020 16459 8267 6899 7400 2665 14918 
4893 2379 366 3875 6487 5683 5236 12832 15098 
2201 15489 15365 4382 10428 2374 6021 5508 3391 
7299 11716 10862 6919 1316 2703 8212 12533 4063 
5146 1251 8151 8931 16431 6437 17154 9253 17420 
4583 13437 6168 1582 17629 6749 1187 2015 10951 
7269 1836 8353 9800 2035 8941 1137 8902 5980 
8142 7877 14048 5826 13603 13869 2851 5052 10454 
11340 6939 8755 5695 14661 8940 10622 12391 16310 
10376 378 13777 7121 17683 7786 16307 14101 17647 
14566 3040 12844 2782 2894 1127 11822 8921 8101 
13119 11051 14704 16112 4633 17701 17244 13844 8227 
9381 8443 1651 1828 10431 11592 12227 13139 13470 
8518 15834 2791 13161 7463 14852 5216 17049 14860 
5340 13661 2490 7082 17640 4965 8164 11324 11374 
8490 16409 7183 4300 1277 14057 16537 14461 12461 
6843 3693 12327 2656 2914 8726 7917 2269 8771 
10867 12033 14194 1272 13463 16923 15985 7197 17577 
1413 3206 11286 16843 8966 1414 595 13036 17370 
10001 7932 2057 10658 12632 6858 14368 6144 9376 
14100 10826 6928 11978 15980 10954 7557 15442 13533 
5002 8064 9681 16726 12945 16545 15008 13039 3919 
14662 8706 11589 2554 252 9538 9754 8710 6829 
873 17233 7535 14920 5412 16108 11549 17682 40 
9761 13650 9502 306 13743 4811 1397 9385 17670 
15713 3844 16944 15948 4798 17224 16273 11904 10435 
1870 362 1563 1872 4629 4076 3514 8713 13371 
2047 2712 5768 16627 15902 17210 10280 9146 3028 
9031 9913 1025 15521 14317 3881 5941 5853 10102 
11273 8515 11572 15207 5318 14322 4536 16328 2262 
10754 17173 15589 11951 11705 14902 6981 5036 15296 
424 12660 4362 17725 2657 14044 15427 4101 1940 
10257 6875 16377 7028 8937 11765 2354 11222 5181 
16687 6031 11297 16768 16722 15178 5997 6155 12364 
16453 16649 12114 11122 12390 621 13199 12771 12037 
4810 9390 4218 9217 14278 2740 15047 15675 15836 
11945 4835 16816 7675 3425 3458 6188 1879 9747 
6557 6926 17817 1479 5396 6210 10990 16740 11923 
1997 8104 8795 2212 2540 13510 6602 10930 577 
12341 11100 14596 15676 5607 17608 17321 3191 1752 
15710 1640 3235 8262 5798 7516 8667 11504 8446 
2059 5599 1708 5047 9684 12421 2359 14876 16719 
13631 2405 16416 4587 13113 13178 11434 17583 2517 
13830 10028 5291 6915 15565 12909 7688 16233 13247 
3860 11666 16970 8502 3472 10553 10973 14464 10014 
7332 1448 3939 4309 687 2446 15043 9693 9058 
8830 3330 2687 1130 6101 10335 1833 13282 2738 
9303 6572 1990 8305 4612 16707 13908 11179 9295 
17261 491 17616 15105 8023 16389 11695 4402 10419 
17211 11270 11962 15591 2643 12154 2757 3488 8840 
16418 4657 8671 1722 4565 13726 1235 16551 12739 
880 4456 2499 16741 1315 584 12466 14851 4936 
9819 17657 6274 2011 8890 2987 16481 5713 7169 
13716 4642 133 4126 17116 15628 4972 978 2335 
9156 10213 14555 4052 13773 13652 12148 2102 5532 
3835 633 16724 14593 12780 14485 16845 472 6730 
4684 1966 11536 7747 16661 6582 13046 6978 17331 
17258 1926 10437 7232 12393 15843 6740 1931 12802 
17159 6071 886 6861 8593 11143 14344 5803 11956 
840 6356 17835 198 13549 15566 2227 14833 11078 
7925 7650 6486 1456 15459 2844 13184 12520 12157 
17524 5472 5296 10783 12441 384 14998 14387 10243 
6405 5940 2836 8401 5415 11830 3652 10273 17382 
15352 4821 11622 4726 10842 16182 2646 15938 2264 
4815 9316 10641 5024 4847 7096 11639 11221 185 
7487 16826 16592 6670 3362 13251 2329 4195 14248 
16508 13359 15174 14648 1973 15510 3534 17438 2857 
3653 1798 10760 15214 14449 16052 6379 12043 1871 
7672 8182 15341 17650 9900 9728 6626 2370 642 
5493 9770 1404 12845 11145 4265 12635 2745 948 
14763 16549 17514 15906 9338 5829 10113 11493 10205 
11335 9386 1353 1449 9989 7524 3156 7396 5497 
17301 12089 93 7071 16579 7929 17688 8622 6499 
2429 12470 10902 6868 13341 2120 9951 10088 11117 
13440 15010 6179 9503 10495 12848 15042 15255 7926 
6605 612 1 7690 2799 7335 748 6072 9409 
5802 10159 4039 7831 7326 3956 17266 3548 9600 
15305 13131 2432 5159 14259 10165 15333 8412 4575 
12682 4558 9267 5721 12756 9259 2577 11037 172 
14349 13807 7686 14364 10219 9859 4315 12544 8345 
7159 17112 16475 10655 2981 2675 12288 16363 8993 
5252 14647 4332 12072 17538 3680 4481 6972 14949 
13056 16341 13073 7137 16824 10595 762 14685 15524 
11679 12196 2114 4222 11367 6564 5058 7175 4426 
2272 3292 9571 2792 8923 7654 7847 11500 5597 
11730 728 11519 4383 448 16165 9965 3946 8012 
6091 13237 4009 5926 3491 1794 7408 2573 16510 
16387 4680 12240 4926 10469 12334 6947 9883 7297 