# vtk DataFile Version 5.1
Generated by LIGGGHTS
ASCII
DATASET POLYDATA
POINTS 17850 float
-0.00463325 -0.0285359 0.00282759 -0.00509119 -0.0246102 0.00250958 0.00645223 -0.0251499 0.00267069 
-0.00372987 -0.0239897 0.00246419 -0.00355564 -0.0228414 0.00250129 -0.00722063 -0.0208492 0.00220745 
0.0130339 -0.020901 0.00175666 0.0120279 -0.0183724 0.00244493 0.0139016 -0.0187462 0.00197742 
0.0207712 -0.0183607 0.00254546 0.0107913 -0.0171977 0.00255017 0.021718 -0.0176465 0.00261595 
0.00936758 -0.0167646 0.00244156 0.0243071 -0.0165246 0.00302416 0.0110071 -0.0151371 0.00254636 
0.0150677 -0.0158076 0.00228115 0.0237591 -0.0155934 0.00273822 0.025448 -0.0144375 0.00331947 
-0.000283355 -0.01137 0.00320842 -0.000690561 -0.0103619 0.00319107 -0.0176187 -0.0104249 0.00223273 
-0.0114748 -0.00957747 0.00293067 6.15066e-05 -0.00934908 0.00331268 0.00408771 -0.0101954 0.00326047 
-0.00900633 -0.00951239 0.00298004 -0.0131907 -0.00798994 0.00313532 -0.0118855 -0.00847563 0.00349159 
-0.00897131 -0.00733793 0.00300276 -0.00537666 -0.0070972 0.00288096 0.00278287 -0.00826005 0.00301801 
-0.00791746 -0.00627916 0.00278178 0.00545129 -0.00683843 0.00249426 -0.013629 -0.00607365 0.00280468 
-0.0121622 -0.00589304 0.00275975 0.00352697 -0.00633358 0.00302037 0.0255575 -0.00567532 0.00194857 
-0.0137881 -0.00428695 0.00282669 0.0282085 -0.00529308 0.00162644 -0.0167524 -0.00388693 0.00302128 
-0.0150275 -0.00379258 0.00248397 -0.0131752 -0.00322966 0.00304899 -0.0108661 -0.00336825 0.00274459 
-0.0163184 -0.00294185 0.00252206 -0.015774 -0.00183431 0.00252089 -0.00742746 -0.00300945 0.00251277 
-0.0126596 -0.00191402 0.002656 -0.0151698 -0.000539753 0.00209072 -0.0067002 0.00642285 0.00129403 
0.00552077 0.00627843 0.00221955 0.00312237 0.00724769 0.00211178 0.00782905 0.0083901 0.00227055 
0.00388857 0.00807978 0.00226949 0.00608535 0.00813402 0.00232512 0.00871005 0.00780405 0.0026506 
0.00477857 0.0087379 0.00235211 0.00561404 0.0105116 0.00239384 -0.0262804 0.01034 0.00230377 
0.0104388 0.0115557 0.00228391 -0.0249568 0.0109734 0.00236278 -0.0246354 0.0134052 0.00288163 
0.00720707 0.0129978 0.0022779 -0.025289 0.0150232 0.00235655 -0.0243339 0.0153884 0.00266175 
-0.0242436 0.0164854 0.00265041 0.0201116 0.0177773 0.00211314 0.0227932 0.0180729 0.00180094 
0.0209561 0.0200372 0.00199473 -0.011678 0.0205632 0.00255472 -0.010624 0.0203332 0.00245863 
-0.0129048 0.0214466 0.00315288 -0.0160146 0.0232967 0.00283785 0.00666983 0.0224507 0.00289347 
-0.0136969 0.0224058 0.00258244 -0.0119572 0.0221061 0.00311777 -0.0108911 0.0228086 0.00320009 
-0.00970063 0.0228367 0.00306182 -0.0155714 0.0248855 0.00302573 -0.0123762 0.0243695 0.00347498 
-0.010175 0.023851 0.0033131 -0.00838007 0.0245469 0.00299388 -0.00611967 0.0231549 0.00277932 
0.00105052 0.0250386 0.00267029 0.00586201 0.025628 0.00305378 -0.0140627 0.0258772 0.00308571 
-0.0115081 0.0250904 0.00344953 -0.00136223 0.0246498 0.00311295 -0.00944824 0.0245077 0.00268743 
9.00326e-05 0.0262668 0.00301003 -0.011503 0.0261277 0.00292944 -0.0104939 0.0267436 0.00317975 
-0.00669004 0.0267175 0.00386597 -0.00270801 0.026606 0.0030076 -0.00089591 0.027422 0.00306992 
0.000404158 0.0293946 0.00330539 0.00222332 0.027547 0.00318124 -0.00576273 -0.028647 0.00226793 
-0.00356767 -0.0291622 0.00267406 -0.00175126 -0.0284871 0.00222956 0.00237823 -0.0289479 0.00243064 
-0.00805752 -0.0282499 0.00267717 -0.00318444 -0.02801 0.00236536 -0.000431607 -0.0283163 0.00236135 
0.00117794 -0.0281712 0.00226354 -0.00132984 -0.0275803 0.00287693 0.00662769 -0.0277536 0.00218646 
-0.00878007 -0.0271966 0.00248147 -0.00489373 -0.0274 0.00246609 -0.000314717 -0.0269782 0.00229233 
0.00339199 -0.0270174 0.00197861 -0.00393358 -0.0263926 0.00235807 -0.00296448 -0.0259505 0.00295033 
-0.00123985 -0.0264298 0.00259385 0.00550058 -0.0259725 0.00247981 0.00800805 -0.0262171 0.00228404 
-0.00394975 -0.0252699 0.00262171 -0.00715201 -0.0253563 0.00247568 -0.00286991 -0.0246203 0.00236931 
-0.0085448 -0.0226513 0.00230956 -0.00765421 -0.0233611 0.00226753 0.00670803 -0.0240667 0.00241277 
-0.00548536 -0.0226365 0.00232226 -0.00407082 -0.0214958 0.00226853 -0.00220547 -0.0224783 0.00284622 
0.00597632 -0.0221071 0.00256391 -0.00296878 -0.0212075 0.00221413 -0.000188753 -0.021664 0.00240608 
0.00891935 -0.0220565 0.0020869 0.0204278 -0.0211667 0.00219315 -0.00178625 -0.0212956 0.0024999 
0.00843874 -0.0215703 0.00307983 0.0115219 -0.0220783 0.00191782 0.0153623 -0.0213109 0.00221957 
-0.00438792 -0.0201227 0.00255479 0.00684305 -0.0209153 0.00223517 0.0118593 -0.0207539 0.0017897 
0.0142727 -0.0209804 0.00179682 0.0164178 -0.0215775 0.00188045 -0.00660258 -0.0196189 0.00210291 
-0.00194911 -0.0201734 0.00238951 0.0033587 -0.0188639 0.00185721 0.00957901 -0.0200665 0.00225273 
0.0128984 -0.0193141 0.00151741 0.0217091 -0.0197954 0.00241509 -0.00376357 -0.0190999 0.00260276 
-0.00244794 -0.0187313 0.00256957 -0.00109985 -0.0185049 0.00258219 0.0070438 -0.0183093 0.00283977 
0.0079795 -0.0195046 0.00254726 0.0103264 -0.0192823 0.00250656 0.0221462 -0.0187182 0.00275006 
0.0100137 -0.018058 0.00239809 0.0236048 -0.0173785 0.00279486 0.00390157 -0.0174952 0.00263173 
0.0062451 -0.0171664 0.0028494 0.0129598 -0.0177621 0.00193538 -0.00263458 -0.0168235 0.00260189 
0.00819678 -0.0165341 0.0025024 0.0125672 -0.0165495 0.00236524 0.0183157 -0.0173173 0.00247251 
0.020659 -0.0171769 0.00261235 0.0225698 -0.016888 0.00239059 0.000427361 -0.0161885 0.00284125 
0.00258909 -0.0157493 0.00302547 0.00395397 -0.015905 0.0028164 0.00603133 -0.0159948 0.00294259 
0.0217114 -0.0153851 0.00270479 0.0251442 -0.0152849 0.00265563 -0.00505776 -0.0157476 0.00223188 
0.000952825 -0.014542 0.00284665 0.00502452 -0.0153692 0.00300042 0.00685298 -0.0151892 0.00304302 
0.00969049 -0.0149591 0.00227276 0.0120292 -0.0145704 0.00252687 0.0230619 -0.0148326 0.00264116 
-0.00663075 -0.0141832 0.00245296 -0.000259667 -0.0138856 0.00283746 0.00204734 -0.0146745 0.00302911 
0.00306232 -0.0141717 0.003037 0.00421506 -0.0142725 0.0028387 0.00849788 -0.0140834 0.0028577 
0.0200694 -0.0134115 0.00201275 0.0221234 -0.0142691 0.00278436 0.0229669 -0.0138926 0.00187955 
0.0245075 -0.0133551 0.00277584 -0.00315677 -0.0138253 0.00253862 -0.00152506 -0.0127955 0.00330125 
0.00159054 -0.0128729 0.00329904 0.00525457 -0.0136709 0.00293872 0.0113242 -0.0127482 0.00247803 
0.0223304 -0.0124923 0.00238549 0.0264421 -0.0120671 0.00179034 -0.0136499 -0.0134938 0.00230839 
-0.0116703 -0.0135304 0.00254928 -0.00045389 -0.0124621 0.00307481 0.00071392 -0.0125866 0.00378956 
0.00394217 -0.0132534 0.00316285 0.00591072 -0.0127265 0.00311782 0.0104994 -0.012016 0.00244007 
-0.0027306 -0.012901 0.00331931 0.00256877 -0.0124468 0.00342414 0.00359271 -0.0120259 0.00312267 
0.00470281 -0.0116702 0.00324059 0.00859974 -0.0114143 0.00258701 0.0108785 -0.0108405 0.00234399 
0.0210451 -0.0116726 0.00210446 0.0241275 -0.0109085 0.00205694 -0.014568 -0.0124694 0.00217208 
-0.0121263 -0.0125485 0.0026704 -0.00387165 -0.0118626 0.00268913 -0.00131955 -0.0117987 0.0029264 
0.000729495 -0.0115477 0.00353862 0.00190696 -0.0115368 0.00328272 0.00667374 -0.0107096 0.00328528 
0.00907076 -0.0103855 0.00239614 0.0271678 -0.0110188 0.00218847 -0.0158495 -0.0110546 0.00218901 
-0.0121381 -0.0107654 0.00279792 -0.00961441 -0.0105381 0.00296712 -0.00807482 -0.0107275 0.00282347 
-0.00287699 -0.0117416 0.00326158 0.00219803 -0.0102396 0.00333065 0.00567857 -0.0103495 0.00280272 
-0.0166273 -0.0103098 0.00271822 -0.0135108 -0.0100499 0.00283073 -0.00652037 -0.00941014 0.00317874 
-0.00445163 -0.010448 0.00274506 -0.00306632 -0.0105562 0.00262022 -0.00125718 -0.00948466 0.00311714 
0.00115129 -0.0098719 0.00334843 0.00819775 -0.00964413 0.0027271 0.0126067 -0.00941061 0.00194221 
0.026216 -0.00888135 0.00198399 -0.0178052 -0.009387 0.00275592 -0.0147827 -0.0108798 0.00267839 
-0.0125676 -0.00941234 0.00295145 -0.0102795 -0.0084845 0.00240842 -0.00782257 -0.009586 0.00297569 
0.0056206 -0.00812063 0.00285293 0.00877726 -0.0079667 0.0026414 0.0219858 -0.00829145 0.00158004 
-0.0148879 -0.00895865 0.00322218 -0.00375249 -0.00839208 0.00326349 -0.000959865 -0.00833399 0.0031268 
0.00751633 -0.00858108 0.00257747 -0.0193245 -0.00750356 0.00267588 -0.0169721 -0.00848399 0.00287786 
-0.0157493 -0.00813347 0.00314166 -0.0142717 -0.00736247 0.0030404 -0.0121874 -0.00703427 0.00316324 
-0.00787728 -0.00806862 0.00307565 0.00433436 -0.00769723 0.00285526 0.00781293 -0.00657488 0.00248707 
-0.0180343 -0.00593169 0.00247756 -0.0167737 -0.00704248 0.0029794 -0.014724 -0.00629072 0.0030679 
-0.0109073 -0.00636715 0.00302779 -0.00699987 -0.00738356 0.00288728 0.0086788 -0.00596905 0.00249004 
-0.0191238 -0.00628448 0.00262047 -0.0171883 -0.00510622 0.00279739 -0.00650016 -0.0050193 0.00249399 
-0.00197223 -0.00554701 0.00278668 0.00204741 -0.00551016 0.00265199 0.00248803 -0.00684646 0.0029772 
-0.018612 -0.00440273 0.00284523 -0.0158628 -0.0046994 0.00328932 -0.00990136 -0.005001 0.00258732 
-0.00622304 -0.00376372 0.00250891 -0.0027768 -0.00456271 0.00289598 0.00120956 -0.00438171 0.00272649 
0.0105702 -0.00348142 0.00150145 -0.0121049 -0.00352303 0.00291501 -0.00841304 -0.00388009 0.00276068 
0.00689953 -0.00426852 0.00217612 0.026904 -0.00465112 0.00191312 0.0286998 -0.00431055 0.00149264 
-0.0108631 -0.0021945 0.00258802 -0.0047032 -0.00342021 0.00253813 -0.00130401 -0.00158463 0.00131829 
0.00178518 -0.00329901 0.00251833 0.00302126 -0.00346748 0.00173553 0.00574095 -0.00400074 0.00257276 
0.0282015 -0.00337814 0.00179254 -0.0178361 -0.00111685 0.00226874 -0.0168782 -0.00185765 0.00227713 
-0.014014 -0.00195814 0.00277885 -0.0115026 -0.00122089 0.00243603 -0.0135955 -0.00060634 0.00242739 
-0.012628 -0.00079328 0.00284482 -0.0104969 -0.000114658 0.00242935 0.0280551 -0.00111692 0.00206826 
-0.0173948 8.59052e-05 0.00251058 -0.0144034 0.000398808 0.00212606 -0.0115348 0.000184835 0.0027895 
0.0031036 -0.000118287 0.00141386 -0.015029 0.00129079 0.00168169 -0.00108727 0.00210252 0.00156078 
[...]
POINT_DATA 17850
FIELD FieldData 6
id 1 17850 int
15 16771 2074 9725 11069 10777 13980 11891 12747 
4035 10660 17291 16965 9315 3480 8664 17611 14224 
12340 16968 9984 14956 13928 2972 16078 11589 1356 
6341 3463 9861 10831 16907 11951 2451 5925 3497 
7633 11037 8060 14897 17039 4792 17148 17320 16588 
6275 14093 5165 5537 11520 16375 12015 11635 15868 
16481 2263 12487 8433 2013 17446 16408 5585 15696 
15219 3621 3189 13522 5863 14961 7741 7128 917 
11993 9965 7339 6870 17514 14097 7550 9243 11170 
6048 9413 16836 3719 7135 15821 6216 12610 3430 
8347 4521 17143 4401 3961 13234 3296 9824 13271 
10417 11429 5175 1251 3444 10534 13785 8491 10302 
733 2876 12765 8301 785 3011 14482 17251 12271 
1780 15398 16546 12219 14718 2101 5405 8624 17486 
11100 11972 1751 16400 14006 15077 7503 13171 16924 
14117 8568 14155 4690 2988 15526 17847 6550 1554 
12555 17212 1739 12026 6328 8011 5480 403 10570 
9567 6593 10385 2920 8854 17377 13528 17315 11976 
9303 5291 8726 9103 10837 16803 6530 6955 16687 
10393 14389 11215 5649 14696 17290 2402 8133 1814 
16567 16357 14373 304 14220 10791 12495 10062 1950 
15945 15325 6535 11529 8683 6056 798 13426 5941 
13959 3782 1986 8430 4653 2428 10905 3623 14388 
9100 6386 6405 16042 5149 550 1527 13286 12851 
3484 316 14082 8139 16379 4355 16022 10975 16484 
4079 16095 17558 3511 6767 17717 14578 2403 3012 
4649 12904 2087 4414 11031 460 13715 7911 13419 
11485 13408 4816 16442 12942 10610 2574 11077 6378 
16933 5736 5868 16749 6323 10771 9904 12963 2159 
8105 9809 5065 13678 12282 1018 1225 2293 7301 
2861 9526 2000 5615 9860 5444 7121 3718 17412 
9626 13859 15224 9017 10773 10249 12097 15029 11256 
10254 3170 6125 13494 1087 14066 3816 15307 4665 
17561 16477 3540 12270 9329 6807 1869 16016 7036 
10613 10176 545 3231 6728 6652 6790 8258 12732 
12647 17058 9118 6568 993 12218 5738 16536 3794 
14378 996 13095 1977 235 12805 5548 2014 15886 
17064 17650 15263 15806 2548 14488 12479 13166 15010 
11376 5836 7155 17213 1550 9953 140 15531 15513 
11277 17616 3580 6611 6686 10980 14996 14691 12678 
11985 964 5471 6820 193 5367 8981 9255 11107 
15803 7968 4317 1017 6606 8183 12701 5153 6192 
4400 14659 17257 16869 9609 14613 334 846 274 
10321 7067 343 4669 11393 3493 12763 16692 4334 
7176 11018 5593 11381 9463 4387 16499 2244 3956 
3963 10728 4727 6290 2001 10719 5563 14179 305 
5820 1406 1160 16870 1696 12914 12325 4714 9238 
6066 5207 5873 2847 16401 11810 10409 5338 14732 
1564 8444 7033 4251 11448 1512 5217 17730 1908 
4184 605 1532 3414 16556 7885 7498 9040 15616 
13965 5242 17492 962 15679 1000 3453 13862 10862 
2931 3926 2786 7751 14717 12168 500 11328 7508 
6251 2374 6794 3047 216 13410 14265 14199 1288 
15061 6910 12315 4366 5374 15238 6288 9091 9122 
8213 9924 13472 11484 12445 11178 14913 14974 2026 
6586 6795 7988 2549 11353 6817 5051 14639 16132 
7354 5519 2618 15828 2742 2936 1639 10568 16958 
2473 8844 3338 4557 11674 11808 12202 10718 7823 
5246 11640 65 3492 6076 7625 11809 11084 11497 
1147 5168 15150 12012 147 11720 13231 17036 14704 
12435 3317 12083 17253 6393 5197 14049 16142 6706 
2225 12226 4196 1500 10286 14184 297 7978 4520 
7316 9130 4685 17803 17379 16192 12129 6195 4066 
9485 4020 17198 10230 1699 2174 9558 7692 8003 
2944 15474 816 2054 3869 1435 5679 6085 16570 
11042 9064 111 3290 12110 736 7901 10829 15961 
11696 14954 10423 10513 17165 2259 4697 4976 5224 
243 7015 7437 9692 1725 4362 15098 4581 1670 
4458 6289 4738 5527 904 10477 8793 4406 5546 
5397 2822 7292 17747 10677 1708 7133 6120 14088 
13043 11914 8631 6406 12276 6309 1232 4410 14011 
15840 3911 5231 9654 4510 573 12179 15424 6841 
10441 12383 5003 10682 15771 14274 4785 13652 5453 
9810 707 4644 9906 16114 6995 6075 955 86 
248 8159 6104 16245 2500 17280 15569 11874 4382 
17640 10019 6518 811 17229 17447 12907 14453 16925 
12611 4487 16960 15457 16293 16761 2702 6639 6689 
5037 6202 14955 16149 5243 14828 1390 1571 9314 
7321 7908 5544 2929 6669 11936 11007 17170 5801 
891 9467 1557 1344 13051 16456 5748 10546 933 
3640 15990 9189 3352 16996 101 15704 2423 8738 
12327 12137 3514 472 1915 10990 17069 4877 5138 
12376 5795 15559 6511 14846 16673 15780 3462 1080 
9625 245 12625 14436 7481 9037 10501 13509 522 
14942 13280 3593 6345 11901 6235 1572 8657 12050 
12308 15640 12009 106 11145 11957 5559 444 2363 
6045 373 17006 10458 6979 3194 2616 16542 346 
4799 13986 17480 12870 5299 15601 12772 14016 17800 
12006 641 4309 8532 6380 17657 8831 13097 6966 
4973 16767 17124 12312 9139 17042 13173 16121 7603 
6536 15192 7832 10932 2590 10173 10467 7936 13956 
4756 12104 9581 15571 10664 14532 1528 8863 6775 
6656 13861 15666 4330 5283 9682 15816 2362 16304 
11524 15745 8668 2672 15089 6875 13605 10775 10812 
4841 14092 10227 5042 15668 8713 12064 2171 12266 
3539 14845 13085 3988 6801 8068 4875 9367 6897 
2125 658 10426 10372 1954 8287 2072 12744 15722 
5603 15119 13480 15417 1348 8084 1319 398 17324 
1031 9335 13647 11578 9033 16341 11598 15164 1206 
3078 9697 9431 10722 13899 17169 3225 11557 16440 
6768 10213 2332 2578 10217 786 15685 4286 13220 
7017 9948 14628 1496 239 15372 15830 6765 8486 
2701 13214 17330 1668 16027 11994 16288 6400 2003 
13725 9606 4142 15157 17769 4616 3477 8278 9662 
9112 6540 288 9938 271 7278 534 2714 14552 
5012 9059 14467 3287 8806 12855 7738 17790 17150 
3631 4419 5121 11073 8464 15644 7636 5010 10150 
10929 12135 1900 7447 1767 12002 6140 16724 650 
15137 485 16930 11038 5719 4349 16764 1787 3252 
9425 2399 13138 14219 3234 790 119 578 10786 
5439 700 5205 7964 13492 12848 17724 400 3509 
3482 7331 7896 5536 12448 17293 2183 6635 7113 
5661 12436 4193 6173 2117 6791 13662 12221 55 
12562 3639 1488 11886 806 12324 11843 4500 15476 
8604 12432 17079 2126 4298 11359 12087 10650 16506 
14791 4567 2320 7827 11813 12850 11648 15045 16501 
17795 10547 15123 348 3989 4733 11119 5398 6123 
17452 11990 680 14216 1590 1601 9328 7527 69 
11584 14914 1543 15543 16738 3457 4489 12147 17635 
11570 12788 5161 1057 3624 1265 13876 12559 9840 
11749 3755 16151 6298 14281 3696 15919 9987 14245 
6337 3183 15874 14817 6215 8026 15060 15665 2488 
8478 6249 3099 10183 3067 9448 9950 9135 14286 
1928 17060 14916 12869 1190 14462 11552 2781 16781 
2425 10880 11075 13772 15049 12832 15706 10168 9217 
466 9109 10744 14264 14058 12362 4115 15860 8766 
2483 11239 14173 2474 5355 5265 279 47 16772 
17692 2355 1566 1736 14192 13883 8989 1667 6456 
5534 9885 10673 14487 7898 7259 1808 13805 14883 
1462 10200 13941 6667 5648 11028 13791 16533 3672 
15707 1368 6810 6296 13013 16782 5641 4038 13606 
15251 17448 14511 1741 775 12073 6244 11126 10622 
8965 9180 14153 10498 8416 16365 15845 16697 15698 
16699 15141 15484 4163 17840 4154 2939 17513 10532 
14543 15953 3177 12836 1836 1765 1455 10618 1222 
5140 6944 17546 13924 3822 6351 2497 749 14169 
15944 15551 13225 17247 9851 4470 8296 14594 1611 
5386 13077 14958 9501 15160 14358 11672 13817 9971 
8272 4270 4588 5486 6444 463 14551 10157 3714 
5403 3285 9412 8230 17464 10203 15445 11366 9253 
3369 4025 8342 8958 11572 11917 14340 4460 15686 
15334 699 10190 15582 765 17353 10416 16834 16319 
807 10849 5212 12629 7965 14950 4671 191 143 
7031 6488 13788 6039 17313 13901 3813 5350 5206 
13780 1082 12794 1711 15598 12581 117 7973 14305 
11962 5861 8635 16346 11476 12563 7670 4989 13367 
7862 11975 7998 2499 4477 15442 9832 14881 685 
2068 2218 14606 9855 16594 2202 9747 12947 3761 
16790 8302 17210 5891 14839 13122 9113 10931 2418 
7520 10583 8266 4098 14319 10847 6465 6072 14667 
2457 8571 9353 13863 1089 15994 6074 5505 10466 
14258 12828 1073 1195 7451 14781 13657 13529 13182 
14017 11956 15933 11245 13968 2941 2535 7616 17185 
14138 835 11106 7595 17399 11784 1395 950 12112 
9628 14573 5433 12345 13078 5518 7397 8208 13684 
15402 4940 14835 16825 10078 8516 6915 5834 15547 
16105 2270 17471 8959 423 14627 702 11827 6430 
5700 8406 11840 5810 7124 4823 6264 777 16223 
10798 3310 8176 4267 4077 6206 14096 1786 16418 
16498 4253 5767 15872 8377 12161 13958 16585 7139 
6172 6837 265 10707 10329 8118 13544 9543 17030 
8250 8073 11859 9607 7403 5437 14986 1975 168 
12802 3255 9616 868 4465 821 10641 8645 13963 
1420 10365 13310 7955 14004 9309 8199 252 17083 
6107 8783 2780 134 4611 8312 14895 11395 14249 
8889 5599 8223 4432 4402 7145 15432 14431 12302 
4820 5177 10265 3304 905 9696 16430 15181 2522 
2572 8797 4127 989 10264 15786 16972 11539 13399 
1633 7649 5129 16581 10178 4700 13893 6196 3203 
3767 2119 17108 6267 17075 16154 2554 14171 10584 
10394 7021 11330 2179 640 15092 17309 14481 11695 
7966 6194 1853 17721 12723 13884 14964 17167 5306 
15154 15081 10553 17369 11963 12014 9745 11233 15200 
14215 1652 5508 11953 4676 17817 1525 4895 7984 
6781 10077 8774 1820 11194 16213 13 5671 10228 
15572 5713 7971 8935 7789 17066 646 926 17084 
3976 13014 3467 15514 9894 6941 10679 4339 8850 
12438 8188 10172 10865 7886 17543 1494 5936 12165 
3018 5347 17755 9001 2680 17465 16086 1235 2968 
4007 4595 15512 3299 696 8481 16688 6705 4237 
5841 11758 13076 9149 5050 1941 9593 13445 3354 
712 16217 913 15726 2927 1331 15465 17339 3985 
7233 14506 14425 6401 14699 7746 1188 8833 15475 
5754 14926 4888 15201 11952 3500 10235 15964 2577 
16817 12290 4747 10875 3738 4181 17225 11074 9719 
3666 3348 9183 13826 16283 10841 11999 4712 5218 
6818 11287 2052 12333 902 15350 11918 14654 16555 
10966 4990 15861 17667 11472 8379 10119 4056 6867 
16264 531 15748 16993 14629 17580 4956 5929 505 
14478 9508 3663 5304 14892 546 10039 13827 13611 
1257 2668 1654 8565 12041 2102 4739 960 10332 
14935 7560 14889 15264 10420 4396 13567 11535 3403 
33 13284 8542 3830 14590 8424 11921 10287 1209 
2530 5399 3474 14254 1936 8607 5798 3370 3439 
4944 12785 2583 10996 2203 3633 5076 8167 7774 
13373 6375 6245 5354 122 13719 6127 10659 5766 
8098 15916 8739 11929 1973 7905 13140 15213 15046 
2884 17272 8857 17056 6413 10143 11614 5685 830 
17351 4861 13947 7358 16497 15338 3053 442 1363 
10438 12054 1686 6643 6948 8901 11344 10145 6109 
16579 6294 8559 5271 5669 15507 17252 15827 6627 
16520 5979 14630 13551 8426 15508 9939 7769 12740 
7149 14977 16718 14010 11467 15614 12603 2481 7607 
7209 12209 10949 5193 15313 8524 7697 10218 11844 
8742 3275 3167 13406 4189 15542 17325 11416 14761 
1812 12203 8642 15790 5652 7359 17627 12849 213 
9337 6212 17018 1603 3555 15330 6970 7531 7729 
4761 7552 11407 1450 8409 11032 10635 14438 10638 
2071 5797 108 13396 15249 14600 14350 17068 14874 
12088 4039 6190 9065 17597 12079 10520 15071 11766 
6673 1594 722 7350 12430 3806 16515 9833 12524 
6537 12943 3063 3268 8712 6920 7277 2561 509 
3611 1824 13149 4590 4376 4797 6925 5785 344 
13531 12492 14098 9736 15520 12601 2555 13514 13002 
7005 15742 5512 1875 17268 4261 16292 10989 3351 
15751 8149 14381 16648 8994 11960 2492 11307 6748 
3132 6087 13169 2893 154 16990 14557 8480 11759 
13618 10780 12534 15374 4627 3530 13610 16174 5715 
5999 12887 11841 447 11349 6688 10535 3707 555 
7594 11001 14295 1687 5122 5095 8111 17136 12092 
1918 16610 11138 17639 7780 6254 5515 1357 16607 
9150 9392 11682 9082 15456 10804 15048 794 10116 
16961 3173 4941 8506 5912 1304 567 3080 12374 
14536 9621 4276 11860 16314 5619 13781 4242 10935 
426 1333 16295 6272 2545 6895 6416 9777 7743 
734 504 8051 2096 4278 10867 12609 10174 15298 
13080 452 1424 3438 1397 12061 5238 1676 3651 
4505 10233 10087 13275 14632 2836 6396 2550 8439 
6495 15505 4208 15968 14288 2204 1227 285 16878 
12408 10916 4288 12394 8615 15928 4175 1352 9054 
4491 4811 17668 10762 2446 10727 5407 11818 6487 
16413 15896 9117 5969 10418 9490 12863 672 1695 
439 16544 16205 15072 7699 8704 14313 4429 7535 
17402 4677 15203 11450 11693 2526 14767 3630 17193 
8032 6735 418 7239 17368 13018 5086 10463 4160 
12532 10556 4515 14113 15538 14360 126 5542 15489 
9842 10765 2104 6692 14384 8495 2638 4026 3713 
4534 17545 5001 9940 17426 8488 16103 2759 10376 
4405 12796 3326 10717 631 9660 17432 332 6105 
14713 5015 17283 9631 8819 9014 11516 2827 7246 
3756 11726 5749 10549 11290 17698 4523 11424 9087 
1943 3876 10551 4404 2513 3747 16760 9229 242 
3139 7257 10840 1756 7106 8310 3724 6847 6177 
6939 4915 17051 11480 15231 16951 13017 16969 861 
1860 10164 12896 7222 153 12402 13560 15980 17669 
6842 16108 15499 17408 5221 6050 10442 13139 11619 
9160 13123 15473 8787 16956 3145 10068 13330 4812 
7963 4057 3859 3576 17299 490 10858 9361 12355 
5186 1285 10924 13821 2316 9381 16328 14397 2265 
7438 5412 15270 15853 9716 10010 2384 12245 13146 
16583 8422 9099 5055 6769 6144 15963 12880 7001 
10258 15347 10374 9502 11842 16218 9902 49 249 
11166 5303 9440 3106 13667 10355 13950 4835 5695 
16254 16979 12843 15268 12034 9120 12875 14118 5181 
1434 3999 1811 11568 9005 12421 2950 9426 5986 
16347 17160 7776 8493 1785 1441 12476 7363 8686 
6503 13083 6399 6541 1994 13337 8647 14334 884 
15480 13430 945 17615 481 5230 15183 506 17392 
17211 16410 6297 7392 1680 16324 850 2734 222 
4550 9642 8695 2762 2449 14912 15243 6549 12323 
17654 3049 14546 16396 16388 3154 10345 14768 16204 
9857 291 110 8047 9359 13119 9766 12490 13843 
8201 6210 9510 6241 13787 17164 10592 2383 10290 
6209 13032 15824 14867 13650 11724 11806 12554 9261 
1990 3933 8814 8460 8152 13713 6145 1520 15730 
7788 839 1076 3367 3162 10805 13556 4867 2337 
3519 5589 1078 17355 16707 797 15835 12653 13493 
17025 16436 3405 10600 14035 4183 11315 11864 17134 
11777 3001 8828 11338 16941 5349 12777 4320 14317 
6231 7235 12771 7082 5204 13443 5940 12491 1403 
12277 16129 17843 2632 9684 721 2665 4728 13304 
667 4788 17013 7733 5980 4795 17708 13155 14408 
3706 5799 1120 17380 234 5607 4548 1297 13107 
10987 1797 10740 7376 7942 17337 13519 16043 6431 
3950 16952 3736 11587 2208 585 15915 14060 15976 
9029 7724 10370 4190 7348 10450 16763 11460 8253 
11235 16196 12201 5772 6357 3716 1830 8845 17113 
3152 10529 16274 10721 2915 11333 11115 3155 15561 
15897 1122 9647 9405 4807 16723 2562 17139 9110 
10828 8916 11669 10509 7913 3446 11537 856 5469 
2302 12572 3381 8212 16679 4365 9027 10232 13767 
6714 11185 10802 17121 5837 5832 7136 4681 956 
7396 9521 5750 4014 8474 6560 8306 5317 1605 
1647 10760 3278 3357 12826 5060 8579 16906 3758 
12568 2461 11745 17332 12037 11364 4445 14278 11196 
4091 14806 4955 9829 8440 7154 2260 3594 12626 
9227 10486 17727 942 647 7302 2376 11803 6805 
9063 14457 2642 15332 2602 3899 11664 11325 14764 
878 12412 1887 14906 15171 15884 16318 657 11865 
5590 13679 17768 7262 10088 5219 13637 3238 12318 
14413 6869 15013 9069 15433 8340 9016 2641 2844 
1298 5485 7323 394 16831 14040 10915 17222 3949 
15885 1468 6547 7173 13923 14708 10244 5567 15773 
11159 3180 10736 15594 1402 12981 16874 14284 15586 
3783 4325 12368 15918 9983 11352 9252 5967 1228 
8848 7725 14664 9584 8500 2800 13184 10234 8104 
7232 12898 15688 4250 12057 17788 9136 13441 232 
10033 1898 16892 8956 9645 15180 17459 13461 1689 
15030 10890 6609 12413 10612 4036 13565 9286 353 
11430 17202 557 9933 10956 15080 13213 15290 15960 
9124 1203 15173 11365 4556 6884 5840 16119 9900 
10587 11385 12711 7615 1314 9418 11776 5653 17609 
747 11212 12030 6603 2856 5854 2887 10733 10751 
4978 3085 3229 3044 15635 4577 4279 1303 9737 
2444 11378 17340 16746 9002 9856 12992 3368 13837 
3765 17374 15299 8001 5099 5886 8949 9959 8326 
11804 9052 276 8361 15288 7193 13341 12114 13855 
7522 3271 17180 6570 13230 16195 16100 13937 14733 
1053 8368 17512 1907 13540 7478 2850 3815 16210 
10096 9634 7952 17587 7434 2039 10759 15383 11673 
2272 11656 10591 7266 15870 1720 12008 2882 2977 
7669 4416 11060 12213 6419 6529 17504 6654 10419 
2228 4407 4262 8420 14842 10460 11615 2258 4187 
14354 5882 13700 3178 9115 16566 4994 11189 757 
15618 1956 7972 4992 4229 15319 6395 14242 11697 
6890 9816 15820 17439 6228 8259 9152 7755 13675 
2147 15209 6193 3894 9018 2761 5688 1984 10560 
4108 10917 748 3339 9582 9635 10186 4408 12251 
4787 1930 2415 12100 8975 13762 16564 10297 1117 
15328 11924 15889 2 388 14929 17664 5514 16276 
15026 15781 10922 14186 2369 17780 2365 11495 3119 
17126 12186 1145 9048 3184 3073 7200 1988 13693 
738 2755 9374 3793 14512 15223 7864 10390 12827 
17764 3345 5778 3469 427 17093 3558 2619 17102 
1858 11624 356 827 12082 3853 1378 12999 13951 
7970 4634 14973 6381 7390 3356 6318 10449 15831 
15511 12128 5087 11712 16299 9663 16517 9918 17350 
15554 3948 2878 16848 8847 13885 3445 2242 3749 
12686 9147 2436 6121 4158 2494 8675 11311 12930 
10052 15090 352 11059 8930 7838 3784 2873 5812 
1638 14587 9995 9970 12820 10655 17503 5245 3004 
15655 7062 1052 12607 9248 16034 9465 4238 8162 
5745 17774 896 2122 7695 11737 6583 15191 4046 
16643 13061 14953 11088 12901 11970 4842 10631 1358 
9057 14678 11920 13860 1896 12933 6284 15633 7205 
12392 12370 14533 1302 3010 17082 7509 17265 7824 
13521 10017 7346 15166 14574 2523 4865 1709 10611 
7064 1167 13279 3629 17254 7280 10021 13815 9956 
14198 16107 11474 1431 15036 1996 9262 4710 3905 
764 17488 6620 16166 13506 15147 15341 14364 3688 
5571 17736 694 15308 9905 4065 6634 13021 17371 
9212 13549 4569 10746 9457 12589 4249 477 4177 
7405 6754 6736 17327 11157 16769 8 15920 16206 
6564 875 11897 4329 4651 7425 16402 5976 8838 
3016 11770 14850 3185 9991 1612 6335 5867 12173 
6355 731 8218 4319 3730 8636 8436 1221 741 
10208 11203 12163 17391 7356 5255 5647 7736 5381 
3168 12072 2610 9874 16281 13041 11641 4424 214 
1260 1979 15851 9544 572 10552 1243 3515 16323 
6007 4719 15849 16632 9738 10970 15467 16931 8953 
7711 8355 8499 9143 17613 1417 11781 3000 2547 
1312 9163 12616 1621 10031 4928 11834 9728 5862 
6403 12387 8823 10144 8275 16852 2187 6721 2768 
11866 1300 9741 4466 15074 8741 11486 7808 14684 
9 6632 3654 5916 7538 6891 4409 848 7935 
5004 3068 6782 4899 4831 17048 8024 5614 7760 
1754 5500 17071 12599 15302 1109 8280 14813 78 
6130 10001 15477 16934 3757 3597 8028 15452 4752 
9597 16910 5351 13245 3104 10888 1194 4352 8245 
5313 5664 7698 17759 6248 6589 625 4566 4839 
2379 1164 10879 2098 2650 15903 7656 17541 3344 
11273 10586 8181 11174 5200 9384 5366 16447 16522 
12545 8933 10790 7765 6741 4893 7014 96 13066 
7921 9290 15016 12916 5675 15727 6854 4873 17839 
17357 1137 2018 4004 27 3052 3429 6367 16518 
7488 5465 1607 5961 16634 4228 17499 11927 6747 
10536 5257 5209 16887 9347 11849 6006 14604 6457 
2966 14987 3449 2431 12458 390 11187 480 6448 
6135 5143 15189 4146 7632 14382 527 16742 52 
1438 11533 7295 7586 7859 1939 15207 2083 16872 
13687 13308 1673 13357 6159 7114 2546 12979 2735 
14327 9003 8331 11477 13193 7206 4754 16267 7446 
14036 15652 9155 15005 2744 16737 2475 6804 5449 
6451 3524 8378 3543 219 3811 4600 1321 3566 
2133 13481 11204 6592 17028 2463 13316 4109 1909 
20 15710 6764 2958 994 6018 14539 1415 5757 
11973 4721 518 14404 7210 118 8494 11740 13067 
6727 350 14559 17295 5558 10838 15348 6392 14046 
14902 4441 5665 17575 16823 3590 8730 15563 2529 
7582 14476 16325 15732 8861 2852 4868 10006 5725 
8974 6234 15788 16311 17328 12199 1129 8170 5284 
12628 8197 4084 6320 5752 4371 13975 1101 5574 
2267 16463 17019 5516 11851 2720 14337 16395 151 
9604 4358 6475 15556 9694 9012 2164 13418 16059 
13194 2062 9813 9754 4285 12990 1799 12938 1541 
12311 10102 15034 8336 7336 6437 10246 14757 499 
13547 13869 7054 9401 156 11814 4874 15700 17433 
12107 5275 9884 965 698 13572 14848 7429 4661 
9251 5414 6591 9274 3223 12521 14703 8932 3417 
2723 6894 379 15279 5965 13142 7427 2700 16732 
14811 5365 13465 8995 1409 13600 17255 586 6797 
14106 7592 15252 4985 1733 16199 4730 7048 2943 
8670 11257 12837 17562 2532 12560 17451 14866 8798 
16474 8917 2109 12198 9522 14945 5260 15052 5007 
11431 3780 17531 13504 15373 8502 3251 651 10248 
9221 16789 3102 2767 4971 16466 4213 5747 4524 
15989 16623 2838 886 11229 8654 4880 14800 9518 
14894 16097 11753 11035 12724 11262 8588 6283 12697 
10281 14626 11616 10481 4684 10316 8108 1327 13672 
4128 16104 3973 645 2669 8872 5441 5977 9371 
6789 7058 7588 11518 6424 12400 867 11984 15737 
5222 2130 17021 5638 10093 2367 14933 4560 4024 
2782 4562 9735 14725 12478 12454 2150 12418 6227 