# vtk DataFile Version 5.1
Generated by LIGGGHTS
ASCII
DATASET POLYDATA
POINTS 17850 float
0.00419434 -0.0289418 0.00119464 0.00690846 -0.0285556 0.00128327 -0.00833659 -0.0281109 0.00116301 
-0.0072232 -0.0276653 0.00108061 -0.00627462 -0.0271183 0.00124527 -0.0093609 -0.0259845 0.00118149 
-0.0105125 -0.0257489 0.00111312 -0.00610639 -0.0254571 0.0011306 -0.00848795 -0.0235412 0.00135149 
-0.00498046 -0.0236755 0.00115448 -0.00397679 -0.0231965 0.00123844 -0.0124031 -0.0235511 0.00119423 
-0.00351064 -0.0221732 0.0011408 0.000649216 -0.0217856 0.00111841 -0.00406013 -0.0209999 0.00111533 
-0.00296208 -0.0207934 0.0011562 -0.000382754 -0.0211438 0.00113469 0.00863525 -0.0207761 0.00160959 
-0.0107207 -0.0202868 0.00116147 -0.00411993 -0.0199511 0.00108297 0.000454347 -0.0198332 0.00125394 
-0.00579783 -0.0195433 0.00119425 0.00313502 -0.0198759 0.00121303 -0.00675761 -0.0185765 0.00122365 
0.0129457 -0.0175491 0.00114487 -0.0243792 -0.015273 0.00112881 -0.00637323 -0.01681 0.00111776 
-0.00494913 -0.0173256 0.00114218 -0.00337251 -0.0154588 0.00115637 -0.00406383 -0.0127513 0.00115623 
-0.00231637 -0.0133996 0.00136469 -0.0255011 -0.0115985 0.00109572 -0.0241119 -0.0121382 0.0011199 
0.0125647 -0.0120811 0.00119197 -0.0254894 -0.0105238 0.0011114 -0.0240756 -0.00965805 0.00123263 
-0.0277668 -0.00976932 0.00132599 -0.0217359 -0.00780788 0.00118878 0.0163773 -0.00695529 0.00130431 
0.0202697 -0.00670692 0.00110762 0.0265716 -0.00695006 0.00138168 0.0176123 -0.00650277 0.00110885 
0.0210763 -0.0059824 0.00128415 -0.0198243 -0.0054537 0.0014985 -0.0150466 -0.00475016 0.00111104 
0.0186825 -0.00505705 0.00125509 0.0208531 -0.0045909 0.00119439 0.0229174 -0.00427039 0.00116149 
0.0247339 -0.00459946 0.00137534 -0.0147353 -0.00355916 0.00111298 -0.0100224 -0.00423992 0.00109341 
0.00601035 -0.00478155 0.00129775 0.025071 -0.00356362 0.00172127 -0.0223653 -0.00295249 0.00110996 
0.0068983 -0.00410855 0.00118911 0.0196875 -0.00141245 0.00116258 -0.0259686 -0.0031247 0.00113907 
-0.0152926 -0.00164684 0.00114789 -0.0118264 -0.00245137 0.00119066 -0.00836578 -0.0019742 0.00111221 
0.00750067 -0.00230128 0.00111113 -0.0173793 -0.00149681 0.00110221 0.00447388 -0.00105097 0.00129244 
0.0109361 -0.000667532 0.00139242 -0.0280625 0.000180801 0.00150605 -0.00813423 -0.000622532 0.001118 
-0.0048874 -0.000574999 0.00118047 0.00547186 0.000696089 0.0014847 0.027799 2.14083e-05 0.00181329 
-0.00711843 0.000140592 0.00111691 -0.00433982 0.000657679 0.00128305 0.000753279 0.000356435 0.00143764 
0.00380129 0.000634144 0.0011589 0.0282832 0.00145812 0.00142019 -0.0123762 0.0011242 0.00106971 
-0.0103271 0.00164623 0.00111385 -0.0211526 0.00264113 0.00113833 0.0086476 0.0032786 0.00192735 
-0.0204424 0.00365864 0.00117707 0.000956726 0.00344135 0.00152942 0.00628037 0.00307492 0.00133752 
-0.0226196 0.0045614 0.00114091 -0.020933 0.00603271 0.00112827 -0.0220397 0.00574573 0.00117952 
0.0013435 0.00633607 0.00170764 0.0228488 0.00661416 0.001861 0.0121948 0.00769644 0.0012419 
-0.00551487 0.00819205 0.00114025 0.023957 0.0076602 0.00157695 -0.0245801 0.00761873 0.00121378 
-0.0229128 0.00845999 0.00116689 0.00767307 0.00803247 0.00125892 -0.0227706 0.00983568 0.00114852 
-0.0215464 0.00954573 0.00112091 -0.00195133 0.00977857 0.00114284 0.0217631 0.00951868 0.00162429 
-0.0225821 0.0117236 0.00117504 -0.00572797 0.0116106 0.00112948 -6.17168e-06 0.011447 0.00115839 
-0.0252007 0.0132634 0.00113214 -0.0053978 0.0127572 0.00111541 0.0084656 0.0126607 0.00166619 
0.00763192 0.0134484 0.00138805 0.00956397 0.0130994 0.00121213 -0.00576827 0.0139435 0.00117984 
-0.00457195 0.0139224 0.00113666 0.0226618 0.0138106 0.00139107 0.0131671 0.0145121 0.00117532 
0.00704977 0.0158517 0.00110995 0.0093939 0.0156124 0.00117076 0.0142908 0.01495 0.00115784 
-0.00858799 0.0163558 0.00114883 -0.00373184 0.0157836 0.00117877 0.0148605 0.0161943 0.00115536 
0.0165592 0.0162746 0.00130138 -0.0172675 0.016831 0.00113069 -0.0131759 0.0174041 0.00131574 
-0.0156584 0.0178889 0.00118161 -0.0110973 0.0181022 0.00112595 -0.0157131 0.0194582 0.00116031 
-0.0109974 0.0201594 0.00110157 -0.00712673 0.0204068 0.00110515 -0.00213385 0.0183081 0.00120089 
-0.0207608 0.0207543 0.00115352 -0.0157866 0.0207503 0.00117036 -0.0141236 0.0202878 0.00116611 
-0.00833842 0.0207592 0.0012077 0.00194755 0.0213265 0.00114693 0.0209435 0.0199675 0.00107737 
-0.0162831 0.0217488 0.00118185 -0.00203426 0.0217954 0.00116458 -0.0177579 0.0222077 0.00114479 
-0.00450908 0.0240004 0.00118538 -0.0120424 0.0258907 0.00120425 -0.00617867 0.025314 0.00117788 
-0.00502872 -0.0289819 0.00182986 -0.000179353 -0.0293177 0.00132079 0.000856498 -0.0292393 0.00180159 
0.00226111 -0.0289063 0.00113939 -0.007739 -0.0283801 0.002077 -0.00667919 -0.0286524 0.00167459 
-0.00348224 -0.0282003 0.00168592 -0.00254545 -0.0285122 0.00119478 0.00168496 -0.0282438 0.00178014 
-0.0096877 -0.0277403 0.00130578 -0.000635443 -0.0274694 0.0017371 0.00277852 -0.0277946 0.00131581 
0.00621314 -0.0274794 0.00106768 -0.01175 -0.0268449 0.00119383 -0.0105958 -0.0268639 0.00129366 
-0.00942747 -0.0268866 0.0018538 -0.00835801 -0.026769 0.00122149 -0.00724949 -0.0268247 0.0018598 
-0.00527637 -0.0268508 0.00168806 -0.00431239 -0.0271098 0.001263 -0.00292378 -0.0273897 0.00113946 
-0.00186499 -0.0275122 0.0014423 0.00125854 -0.0266161 0.0017517 0.00409415 -0.0270912 0.0012371 
0.00518445 -0.0266699 0.00116183 -0.0134452 -0.0259429 0.00113556 -0.00627362 -0.0262226 0.00191391 
-0.00308366 -0.0262611 0.00167576 0.00266627 -0.0265232 0.00118136 0.00437008 -0.0258497 0.00115019 
-0.0156118 -0.0249419 0.00124013 -0.012025 -0.02563 0.00116438 -0.0107709 -0.0254647 0.00210909 
-0.00735546 -0.0256175 0.00116449 -0.00634084 -0.0250554 0.00210371 -0.00502941 -0.0256359 0.0015874 
-0.0014499 -0.0255888 0.00143103 0.00128662 -0.0254452 0.00165435 0.00238209 -0.0256819 0.00213145 
0.00373343 -0.0248259 0.00197422 0.00696696 -0.0259127 0.00139143 -0.0143231 -0.0251695 0.00134586 
-0.0112261 -0.0248122 0.00117507 -0.00995138 -0.024631 0.00212539 -0.00691432 -0.0244591 0.00111259 
-0.00360353 -0.0249457 0.00122625 -0.00232938 -0.0245851 0.00129474 0.00264738 -0.024845 0.00141361 
0.00588349 -0.0252855 0.00109994 0.00739774 -0.0248438 0.00111625 0.013987 -0.0248863 0.00135087 
0.0156016 -0.0241499 0.00107927 -0.0173626 -0.0234259 0.00143981 -0.016225 -0.0231919 0.00120297 
-0.0147246 -0.0234664 0.00148409 -0.0137438 -0.0238365 0.00112466 -0.0123328 -0.0246234 0.00148461 
-0.010282 -0.024184 0.00114493 -0.00897733 -0.02466 0.00115897 -0.00798199 -0.0245175 0.00170186 
-0.00496886 -0.0245363 0.00175108 -0.000824776 -0.0245449 0.00130358 0.000327936 -0.0236119 0.00146899 
0.00145369 -0.0242536 0.00116664 0.0035756 -0.0230117 0.0012742 0.00463856 -0.024197 0.00141563 
0.00679911 -0.0237257 0.00126463 -0.0112787 -0.0235966 0.00133321 -0.00965341 -0.0232559 0.00112182 
-0.00714796 -0.0228896 0.00112472 -0.00618639 -0.023423 0.00113023 -0.0011386 -0.0235565 0.00109887 
0.0011011 -0.0224029 0.00194901 0.00220586 -0.0221658 0.00110277 0.0144416 -0.0237738 0.00137665 
0.0174382 -0.0235682 0.00170101 -0.0184752 -0.0220419 0.00215922 -0.0170709 -0.0226624 0.00224496 
-0.0152329 -0.0226758 0.00208581 -0.0138838 -0.0226737 0.00183292 -0.011821 -0.0227519 0.00190206 
-0.0102339 -0.0227178 0.00183595 -0.00544354 -0.0226817 0.00140148 -0.00429051 -0.0223219 0.00188958 
-0.0020789 -0.0230162 0.00139359 -0.000200714 -0.0220952 0.00167901 0.00325464 -0.0219407 0.00151669 
0.00468114 -0.022293 0.00114611 0.00828841 -0.0226074 0.00110913 0.0164436 -0.0228654 0.00174566 
0.0186867 -0.0220142 0.00173906 -0.0190595 -0.0213776 0.00291896 -0.0158723 -0.02172 0.00245178 
-0.0149918 -0.0218288 0.00120625 -0.00915394 -0.0222345 0.00144764 -0.00791918 -0.0221707 0.00142933 
-0.00654974 -0.0219799 0.00141574 -0.00488723 -0.0217158 0.00113547 -0.00234844 -0.0217711 0.001207 
-0.00120753 -0.0222361 0.00120932 0.00240595 -0.0209975 0.00163584 0.00431408 -0.0210814 0.0011651 
0.0114731 -0.0213243 0.00113055 0.0150257 -0.0225654 0.00109369 0.0175885 -0.0221066 0.00192381 
-0.0201264 -0.0210276 0.00295558 -0.0179378 -0.0203116 0.00245474 -0.0118158 -0.0214905 0.00215768 
-0.0107642 -0.0217725 0.00124606 -0.00975168 -0.0210541 0.00128143 -0.00586608 -0.0209621 0.00128894 
-0.00133798 -0.02037 0.00123802 0.00141433 -0.0205151 0.00131087 0.00637546 -0.0210111 0.00158192 
0.0130825 -0.0214285 0.00117463 0.0167621 -0.0212831 0.00185743 0.0189632 -0.0210177 0.00164245 
-0.0210998 -0.0203409 0.00298453 -0.0150448 -0.0199958 0.0025616 -0.0127499 -0.0205091 0.00197288 
-0.0111471 -0.0206224 0.0022979 -0.00799232 -0.0210877 0.00114437 -0.00695365 -0.0205969 0.00138799 
-0.000550605 -0.0197098 0.00178408 0.00391211 -0.0195769 0.00187725 0.0057408 -0.0200866 0.00123994 
0.014304 -0.0210847 0.00141128 0.0156347 -0.0217621 0.00137101 -0.0206133 -0.0191892 0.00218542 
-0.0173625 -0.0188393 0.00215321 -0.0140129 -0.0198678 0.00214136 -0.00801091 -0.0189399 0.00115061 
-0.00479814 -0.0195279 0.00173478 -0.00301227 -0.0193263 0.00112016 -0.0019231 -0.0190927 0.00115867 
0.000211038 -0.0186057 0.00155305 0.00124768 -0.018493 0.00119305 0.00210314 -0.0193476 0.00117994 
0.0130226 -0.0200002 0.0012805 0.0140045 -0.0201395 0.00191933 0.0168878 -0.0200339 0.00243254 
0.019027 -0.0202553 0.00240222 -0.0222055 -0.018812 0.00201663 -0.0145577 -0.018685 0.00284819 
-0.0131573 -0.0184432 0.00262933 -0.0119729 -0.0180654 0.00251608 -0.0109993 -0.0186795 0.00210772 
-0.00986595 -0.0193902 0.00174812 -0.000755649 -0.0184819 0.00108007 0.0110785 -0.0197637 0.00111651 
0.0156911 -0.0188708 0.00192145 0.0182465 -0.0194 0.00236569 -0.0228359 -0.0176406 0.00200645 
-0.0207794 -0.0178087 0.00248388 -0.0195967 -0.0177263 0.00274727 -0.0182023 -0.0181018 0.00273425 
-0.00774888 -0.0177832 0.00116549 -0.00592306 -0.0178384 0.00156791 -0.00489829 -0.0184717 0.00134574 
-0.00283791 -0.018221 0.00114959 0.00758528 -0.0185094 0.00124734 0.0118227 -0.018361 0.00121383 
[...]
POINT_DATA 17850
FIELD FieldData 6
id 1 17850 int
1881 1227 3484 12759 3150 1639 10425 8870 9076 
15852 14854 6180 8973 16940 4672 13973 4038 12005 
4404 6018 13772 1022 12245 1076 8537 3796 11423 
3048 252 4190 11264 11930 5855 699 16009 16041 
9897 16837 5725 16918 14634 16060 934 11330 5295 
12179 7174 12743 16661 10695 12476 4456 12576 11577 
16032 4956 15605 8872 1235 12340 11764 15784 2638 
4089 13776 10833 8021 3298 3766 11078 9071 3325 
3531 5587 17770 4237 14969 9713 2435 14259 17047 
4195 9977 13322 1 2120 6803 5159 10371 12922 
7455 12302 3469 4692 10747 11461 1249 4290 6862 
15209 15833 17005 4822 5806 4010 2909 12549 8968 
10980 16705 15678 5591 12306 16946 882 3207 4749 
16 10171 7783 11243 4714 12813 1550 8083 1658 
5606 16261 17833 12263 13236 6485 8089 8459 5577 
6896 666 2797 9490 510 5643 10417 3406 10173 
17307 1438 2786 6899 2773 5240 5498 7114 17357 
559 12228 12555 9485 8512 2378 3898 15936 15460 
3363 1677 9987 8835 5707 4660 5395 15878 7629 
8028 8072 10879 7660 3414 4705 2956 2863 3566 
9236 12832 8417 5210 11306 1485 12026 627 8808 
3161 5092 8196 2388 8370 1008 12328 17799 8280 
8400 3391 5364 2550 3648 11258 12622 5423 6869 
1556 12202 7400 2060 7357 351 9620 7751 2265 
11553 8941 16431 5508 17080 14312 2575 17834 7582 
12264 16871 12940 4168 652 2445 7146 9232 2720 
2015 10660 8765 16379 939 2008 8794 12582 1457 
7441 1356 7014 1056 7210 10951 11250 7873 6437 
13990 5353 761 17049 9595 9820 3143 9891 8762 
17226 11374 16885 1277 3869 13792 5340 11672 8101 
10454 5006 594 11652 9887 10867 14689 9767 10826 
17805 2202 1194 17378 6667 17291 1217 9376 5170 
16573 8443 13720 165 5578 13353 7866 14071 9233 
3024 4300 9151 15824 10788 7197 7314 168 12047 
3544 8887 2651 9655 3308 15797 17129 13997 15930 
15602 14100 2652 12226 6553 6278 8536 13463 16087 
14957 13742 1877 8584 7353 2554 1985 9099 7887 
2966 14447 8445 16597 13270 725 1380 8706 11589 
14368 16042 7535 11315 16622 10714 11645 7912 1872 
9401 9766 2824 16697 17210 13529 17682 14194 14717 
14868 7046 1489 9307 12566 9385 15247 17579 16627 
16504 15675 14372 3201 4730 10798 3738 16647 12399 
2359 13974 16992 4886 17206 7534 12624 362 8047 
12137 11647 6810 2657 13687 9146 16642 17267 2441 
5446 8658 418 12960 6555 7765 11297 7975 12788 
3327 1414 9913 2713 10435 17447 13868 9637 14243 
2007 8011 7703 10195 17152 16558 15907 4792 11905 
16193 13199 8777 4629 15665 8248 14556 13985 4539 
7522 16442 11847 16019 4596 13852 12478 3460 1112 
481 1575 17804 2664 6372 7496 10 10140 10040 
12453 11408 8579 45 15000 14614 6926 2384 15022 
16008 2757 395 7585 14751 17693 8557 16649 14504 
12390 10876 17723 621 10507 11861 5368 17321 4146 
16186 8801 15589 4449 8344 10708 12341 4154 5851 
14397 9693 9829 2103 11480 10612 9029 8937 9907 
9122 1190 3712 3488 13247 12789 14254 17190 3392 
6573 12190 11975 16382 11635 818 15856 10667 16693 
10335 9206 11504 4342 9370 12866 9467 8934 11586 
6293 9051 2157 16253 8685 15054 3778 11024 10553 
3146 7363 5150 7476 5358 3780 53 3591 3472 
2059 16481 6405 4077 3374 4895 5272 17116 2643 
9154 15431 10973 3402 16551 2337 9139 6162 3260 
13773 13347 16748 308 9634 13227 6740 6572 6806 
14905 10212 15876 15272 14092 15466 17172 5024 3903 
7217 1348 4602 2987 14775 1053 983 3118 12802 
9081 13716 133 4880 6547 17261 16479 16785 14833 
10243 13797 17628 8591 10148 12057 2646 8955 16508 
16905 7305 11618 4642 6207 2440 16465 3650 14455 
13420 7579 13359 470 10709 3626 11493 1433 514 
3913 15352 11216 15327 17650 13397 3953 14347 9338 
9682 16529 13104 113 7155 12367 9898 8087 9080 
2841 14842 3700 14377 750 16724 5220 15042 7636 
12546 16735 7340 612 9188 9428 6020 1267 4742 
5854 13121 15001 430 3230 7192 17002 15912 5674 
7008 135 12470 13549 6697 8113 17514 16718 15958 
654 1216 2390 6388 2949 7626 6369 6892 2414 
17520 575 17776 10703 7673 11135 5789 2601 6111 
17070 7798 13073 796 2432 11838 2604 13151 6072 
11587 5241 960 7929 11150 5478 5782 4922 12776 
3849 6754 5199 17844 5012 14719 4819 16810 12689 
14369 14480 15453 7324 2308 11894 9466 13733 4632 
132 17836 10963 13401 12430 8435 17029 952 5178 
14919 2748 3491 10932 6787 3184 13232 16350 4439 
10402 9457 10560 16669 3020 10459 17219 10706 15097 
10661 14665 15614 13167 7551 12884 4941 5334 7886 
3078 2146 2832 14311 9853 10693 8739 16358 15975 
12920 855 2913 12316 15648 15745 17768 16437 3698 
3864 16528 17607 781 13384 9488 10759 4483 15579 
7517 15769 6574 10774 11032 7426 13567 16838 5271 
16423 4598 10753 12997 7800 5991 14978 9596 6335 
15653 17407 10770 7355 7976 12954 14537 14352 13879 
410 5934 783 14524 9793 1668 12357 14997 12527 
1108 10166 4017 6653 4132 13929 10278 5960 2271 
11313 3095 17605 15954 12494 7526 16494 9955 8259 
15967 10252 9919 3371 8379 7576 8847 7207 2081 
14533 13439 8359 17585 4314 3701 14059 14401 12775 
2291 2325 12782 14769 9378 11656 10372 6607 9147 
8323 12067 16836 9025 8630 7252 14692 9082 17542 
7905 8287 4264 10196 7769 4156 8697 15633 8823 
15869 3173 5135 12143 5831 15719 6441 17766 7687 
8862 17644 2586 17271 17008 2770 4329 8545 14227 
10527 4269 10337 5849 16345 6259 3185 15528 1245 
11443 5298 1183 16246 6510 7067 9478 14294 10451 
2997 13336 3132 10566 15078 14921 11713 7109 8137 
11815 7030 7953 2982 3741 8041 1958 8884 16503 
7510 419 4317 5091 3274 15147 1959 2494 8604 
17590 10298 8464 13153 15746 4852 5637 8350 10491 
8907 16786 4865 14260 15157 12369 2727 14936 12249 
14105 7244 6679 12888 9991 5867 5613 11275 4276 
17729 6569 7249 6905 15689 8696 1569 14845 4569 
10116 15254 8216 2697 1844 17502 11054 3263 6051 
10288 12647 13784 6631 9262 5325 848 8562 9053 
3848 17763 14552 5719 3473 2496 2768 13914 5496 
14585 2172 4844 4492 7760 4179 10835 6474 535 
4603 3989 3998 15244 15328 8863 16635 4473 3676 
10688 5647 9285 9905 5930 14139 5625 1552 5232 
6292 1843 6881 7512 9950 10600 7283 17581 6021 
7795 5986 10072 7177 7683 3471 10457 9473 10739 
829 8014 10302 2659 3761 782 9371 4391 7527 
1623 6315 5939 5505 2954 4552 7389 5274 12559 
10866 3579 5764 10815 4234 4564 2418 5236 5447 
8902 2005 8267 6747 9560 1666 11772 9740 7778 
110 10020 8594 14000 13643 10281 3436 8698 264 
1187 8931 4853 8356 9475 7094 10862 10677 11070 
17695 17060 5331 10177 2113 2623 4781 8388 16731 
1483 10947 16134 6666 5052 4208 4604 6998 7299 
16198 6357 11123 1923 13368 12065 9708 3691 2286 
2184 2054 8585 3047 1137 13710 1890 4445 2163 
7733 12844 8606 7822 3137 9729 11006 4559 9333 
5695 339 7877 1316 13161 16950 9187 12755 6741 
14153 16468 12490 17536 6939 440 2946 12633 17647 
3810 5503 6365 17310 12332 13139 3099 5492 2490 
10401 11446 7554 8490 17423 4937 16580 14357 7862 
10903 5529 14940 10570 4633 1739 14106 12618 13180 
10319 5574 6843 11825 9538 6778 11324 15616 16965 
8967 14529 17794 8651 11671 6261 11413 9274 14625 
14683 13269 11454 10670 8616 8615 10697 17370 15980 
6530 873 11455 4363 17405 14568 3844 1909 15948 
6189 16076 13895 7450 3752 15884 1397 5194 8600 
13172 13103 4752 1355 5519 15397 11130 14662 2317 
6714 6341 13650 1778 6829 13337 16045 15908 12945 
10669 991 14436 10888 1563 12378 12681 4068 3728 
5768 17670 15713 5681 14184 8501 13820 3645 10305 
9771 17148 12821 17182 9603 8641 10061 17077 10586 
13802 6880 13702 16289 7189 8461 2205 13326 14214 
158 15512 9688 5318 14322 14548 14373 13438 16726 
11718 16273 11904 8882 3881 13968 9526 15088 1461 
8674 15432 16901 16491 12530 16722 15590 10211 17224 
7606 14317 1995 7908 7139 10763 7978 5530 9064 
10604 16740 12411 6155 5690 7255 12528 12851 11705 
11765 4785 12014 14490 17608 6343 13897 12855 6587 
8797 15438 11984 630 17379 13482 10673 9245 7140 
16000 15427 13927 17173 8130 4631 6277 11778 16599 
16377 16484 9703 3106 7031 15892 13159 5347 15444 
11122 14836 17323 11242 15023 15788 104 1497 13100 
9969 6488 10062 6682 10861 6931 8795 6875 4198 
2062 9483 12242 3447 11093 12796 3870 17685 7136 
8080 10257 14149 16224 13709 1475 14118 234 9944 
2475 1678 13266 6750 16802 8840 7115 14024 10754 
10713 14300 11380 3643 10567 4986 15307 460 5961 
17622 2686 13495 13113 8446 1888 15658 12270 13 
15192 11414 4936 10920 11179 10119 13282 10289 9281 
11184 5898 3840 497 16741 5026 11877 16098 15503 
11317 8434 11968 5830 7398 15843 7170 4716 4126 
9910 14855 16416 15915 14485 2738 16845 10752 16753 
12957 9125 472 14794 918 14851 12499 6598 7016 
4979 12269 2227 14122 259 8800 6291 13822 2246 
2922 7891 1456 3619 3033 6772 4052 11426 16822 
12235 13881 16988 15174 1152 2310 10090 6057 10439 
3352 1854 11026 560 6336 3355 14590 16617 12677 
3148 75 10419 6266 12195 5803 11651 12358 17228 
16182 15672 17705 13861 7596 1967 12140 3965 11758 
13830 6546 13411 15105 13220 14656 6938 10746 14233 
71 4375 7313 7032 5615 880 1030 7242 10760 
16359 9838 11819 3900 15067 16555 15938 7578 12177 
10113 7820 642 12786 16674 5259 14387 1036 16538 
8622 15164 7373 14962 14507 11728 4578 4621 6730 
12739 1143 12585 7747 10239 4565 12908 17347 15341 
1349 15906 8744 13952 15923 17418 11390 17144 6837 
7524 1384 5970 2439 458 7638 1085 1059 5984 
16683 2160 4908 13545 1583 8182 16467 16549 15149 
4426 16900 2207 3498 2223 9355 8284 603 8792 
16708 16197 7855 10844 11757 1372 16203 5829 13317 
14443 1941 4933 9409 9605 10639 10768 6776 2476 
15407 1465 16607 14343 12912 15604 13131 5438 7415 
4315 14333 6092 13453 13670 7162 9843 15650 15655 
14763 15305 5258 1306 8560 7568 1449 15275 12643 
7631 17810 7232 17660 11881 5404 16335 5431 2341 
2813 5041 15055 14712 11659 15627 9869 9650 3938 
12278 3631 12579 8383 6091 9702 3679 1837 10219 
16851 12994 12602 3128 1253 11548 17150 7902 17790 
11643 3601 9859 9335 16161 10519 7128 11038 11081 
14213 16928 4969 1519 1228 1794 15403 5989 10460 
8746 3159 1795 12644 9497 12241 4105 16983 5759 
2084 1031 4762 11280 13362 10405 5785 14320 7643 
1802 15893 11993 16039 6455 4443 9935 7408 3373 
9302 13704 6494 16548 6917 3996 14731 10590 3802 
10890 14782 17453 5620 1652 4699 212 9666 17580 
7221 3171 10976 9998 3158 1894 17285 14296 10811 
10312 17270 9715 3928 9373 2829 2479 13638 14195 
8563 13698 14931 8912 17241 1671 1323 1241 16049 
12305 4023 5873 1209 16660 10605 5906 17388 5512 
16085 2840 13962 17336 1336 7729 3167 11977 9019 
14968 7078 9966 10524 14906 16514 13645 15380 14613 
13662 11210 2581 8596 11017 14756 17753 15264 17825 
4918 14808 729 14528 3506 22 16480 9506 3434 
1622 10787 12839 10060 7395 14410 11983 2469 15382 
3324 10631 3275 1827 17649 1628 14802 8103 14385 
14196 16971 8694 16288 14256 2036 5651 10275 9364 
2482 3287 2003 15631 1432 12914 14674 14520 14708 
12105 4561 15634 622 10130 1523 5722 16179 1613 
14887 4055 13413 16806 7167 11560 4468 677 13391 
4805 6985 14659 9075 7997 2533 10554 14619 10201 
11263 11829 7505 2880 8444 574 10362 5790 8867 
17319 11650 15425 6513 6178 8327 12162 4450 3044 
567 12082 10484 12734 16799 16326 17503 11719 1446 
16829 7202 9226 14608 8990 6415 7412 1334 11384 
15984 13522 5054 8547 15471 669 9098 16702 12552 
7994 13502 16452 13372 7968 16356 616 10292 3533 
10076 15723 3613 3165 15991 12324 3017 7327 2196 
12062 1017 5818 17696 11347 15950 1706 5300 3189 
3443 1824 3575 15120 8235 15763 10872 12715 10900 
15859 5125 6828 266 3267 3697 6634 1984 15384 
1174 5338 9107 17335 1632 39 8163 2352 4236 
4442 14421 8074 1464 6948 11687 10274 5885 14700 
6891 7870 1562 13947 2628 13996 12024 11383 10624 
7331 10475 10929 4911 6748 6516 4837 13074 8504 
10623 6621 9235 15776 8482 322 5407 4192 11576 
2023 1132 11126 9718 12765 511 11187 12147 7498 
3468 11257 11228 4209 12698 4862 3588 5566 3978 
1543 1532 10361 2545 3306 1922 12692 9876 1635 
10251 11031 16459 8763 2234 1345 4734 924 672 
81 184 3609 8115 11402 11152 15754 463 8082 
3733 15846 5455 1642 2892 16677 9522 12051 6919 
1307 1354 1329 15578 14671 1000 7858 11058 6745 
9524 7853 14496 12127 8158 10317 1987 13620 6304 
5048 6749 123 12004 13516 8950 3438 2182 7459 
8494 12107 107 8212 2028 12219 1746 202 3696 
4501 4278 13017 6762 2431 11218 3744 14890 8541 
146 13856 1284 17248 16336 6251 6361 5947 1352 
5474 17317 5070 12551 921 10702 7915 11372 15049 
1070 14313 1805 2891 6149 5903 14616 3040 7122 
1140 6084 12391 10376 7696 378 5978 1435 13485 
211 11716 9173 2703 8819 1800 15199 13488 11592 
11822 4904 1970 6519 15502 10790 2503 11115 12035 
11915 9794 14102 14057 2690 6026 8921 14635 17104 
5224 11188 2221 17701 8755 1119 7893 8989 11476 
8580 3914 7678 12461 10718 14860 3693 11249 6130 
174 14849 3428 8064 8966 17240 5838 11411 16923 
14232 16801 6589 9615 11978 10574 6323 15661 9283 
3463 12495 10418 12632 7265 6858 1478 9681 1272 
9652 14461 17360 8206 595 7403 10308 1409 8094 
5036 9339 13489 12611 12654 17399 4873 4754 2065 
4536 12939 1180 16330 9224 17490 16545 7181 2327 
7907 1413 9228 15424 15902 15060 10030 11127 10645 
17318 6640 9607 10877 13036 5776 1574 11154 14035 
4318 8039 17233 13472 9330 4677 7533 8372 17699 
14799 6224 16259 10389 12543 3514 8009 12153 17481 
10549 4430 16306 15342 14022 5883 16778 16574 15451 
13924 12709 15311 10656 16749 12130 3768 275 6174 
17392 13040 14746 9344 5037 1099 16421 15321 17409 
11008 10016 16266 7402 11502 1462 3084 10160 13743 
16097 13788 9759 14776 16240 4240 11684 6053 2749 
14762 887 8878 6317 8932 6423 16474 12923 16456 
8971 16146 16768 11397 8688 3029 6994 10424 6517 
1830 9921 12942 15961 4676 11364 8779 16436 16243 
11388 14589 13884 9273 2925 11959 9587 8880 16513 
10522 9761 13217 9841 3226 17349 5138 15674 13503 
11945 4161 11888 15499 16448 1025 6188 7520 14366 
7955 13683 3147 4076 670 424 14113 3799 15206 
17725 7477 12909 7969 4102 3006 1940 11936 10463 
1220 16765 7872 12777 1287 10805 577 6593 14433 
14055 7112 13076 7869 9058 1640 14129 7028 9216 
7580 17366 9756 10445 14819 12919 14876 16719 1325 
5219 16453 10559 5564 14043 13350 2540 13267 836 
12771 1879 5183 10168 12182 7204 14109 4693 12523 
14013 227 14423 17700 6391 3458 8860 16301 12284 
6070 1240 4510 10985 17463 10026 9089 1742 9168 
9323 7482 7347 7513 11725 8959 5833 2293 16249 
134 11329 5303 8097 15595 15727 11566 3018 17450 
16233 3785 12804 10136 7700 5527 6213 690 7701 
14752 6584 14464 11703 7444 16953 12154 10925 11159 
16033 9954 14605 12905 9939 5646 11654 11732 2501 
13178 14862 14398 3009 1133 10930 2355 7332 2404 
7682 3505 426 5555 17796 4212 8728 9819 16970 
14633 5702 14473 8305 900 10353 15628 4681 7934 
17677 10395 2558 14848 3640 8492 16291 7309 3276 
13366 12184 4127 6071 6797 16199 3918 3435 13408 
8667 11863 16213 10583 9002 3865 12833 5641 15459 
8428 9183 16863 6109 1612 14053 5800 13014 12761 
16386 4842 16532 1931 6080 5268 5799 6217 12188 
12493 12466 9705 6791 7659 13854 15572 17582 11253 
6004 1296 5901 7797 6158 1898 6723 11670 7770 
10093 15140 12422 9873 14593 14610 9123 13767 11419 
5182 10620 14418 9892 5495 1238 7186 15558 17595 
1926 16430 10674 14238 15197 1973 2668 9278 16422 
17159 2499 161 4653 3993 4585 9669 11143 17246 
2347 11932 12519 12393 16406 14400 4007 17075 13422 
5144 6684 5149 17192 9379 7525 7793 198 2631 
9521 2415 15566 17093 3307 15222 9036 14526 1662 
7448 4624 2836 10641 6850 1783 3476 15166 7345 
8226 12233 15983 6986 4447 16176 12967 11349 14648 
17658 9565 15510 7691 5557 17110 11501 5342 7875 
5131 14268 17820 10510 4970 14973 17688 10550 17501 
9458 12834 11295 1353 14449 9762 11802 4078 5778 
11578 16890 5122 10283 1124 2818 9594 1102 11844 
2264 5629 6229 5572 3446 12995 14332 3538 4130 
15487 922 12119 11797 10842 2085 12038 12417 7926 
67 5977 4181 16975 3547 15904 3303 10236 3889 
10073 12634 11197 14248 8949 235 12106 9612 531 
10644 9149 15240 14241 16297 12603 16891 15255 2233 
15394 15283 2945 6663 3417 3066 13065 4884 5010 
15917 3277 16093 3232 1517 5281 6605 13062 632 
7757 16650 15677 8994 2577 5584 4360 8524 13332 
13264 14953 11697 11312 8623 4259 8605 14342 13607 
15955 12002 12500 16779 9203 225 9163 17761 11664 
4061 13237 13735 7137 15608 374 8294 3410 11162 
8642 4813 17001 11325 2294 7175 14179 13349 3376 
7818 10379 325 1807 7149 16166 9263 3483 5642 
15371 9577 15535 12473 10508 9551 13476 2108 8322 
4009 15606 9527 4313 12479 5346 3542 6974 6237 
14070 4128 16517 12186 7881 5698 5270 16443 3345 
5926 2092 6644 4953 14961 1261 3037 3759 16148 
2375 14540 17419 7896 14601 2080 436 6126 15702 
8339 4354 12750 4364 11668 307 16464 4787 12930 
1904 11309 3234 9162 11307 12081 11149 13093 12003 
2070 11969 6340 7726 10687 14729 17816 9061 17494 
2380 13059 5524 17163 16947 2995 7154 14465 6718 
6403 12781 6991 23 4486 5076 2593 7785 16173 
2284 10756 7732 17026 17697 8380 8720 16015 2763 
10635 8650 13531 6009 1961 7043 12492 8626 12108 
17600 9199 15806 13530 8457 7531 5693 2468 10465 
12889 10789 1972 843 7499 16913 7864 5994 13987 
3921 13555 397 4367 9990 10523 5471 5309 16621 
953 12103 17326 8926 13892 2746 15973 14226 14240 
6121 10052 12126 7372 11203 17576 7017 5155 5016 
11056 11826 11774 17265 8601 6481 11931 16107 7369 
12100 6766 1878 9065 9438 2821 233 11598 15176 
8050 1522 14678 17681 3280 14996 9559 4480 11114 
5217 3075 2128 10326 9711 16029 6793 2947 5596 
10506 13740 4008 16501 17373 13394 743 2878 16216 
7247 4349 1037 2288 2896 4841 5009 9909 250 
9387 3669 120 239 1116 9024 8106 5543 2823 
12593 13534 11368 12684 1146 579 9584 417 12039 
12650 4386 13832 12674 15364 10181 13920 11479 7264 
8543 11352 13663 16061 3064 10210 14090 9159 14682 
7722 7125 5560 10994 8834 722 5972 12134 485 
3709 9095 10535 189 1787 1300 1976 8951 11780 
15574 2737 12751 4019 12600 17127 1701 137 17728 
5416 4618 8069 5755 4855 6254 15387 2012 3060 
2525 402 5112 7073 8169 1166 15498 7064 3879 
149 16615 3427 4514 1686 4952 10110 6668 352 
17795 4350 213 4143 3666 14710 1039 11488 15129 
4158 9601 3771 8741 2661 1784 11887 16709 289 
3199 2066 15921 4651 3610 15587 1035 3481 11788 
10115 1084 16252 8981 1896 2814 9298 11609 10650 
2239 10565 2980 949 4409 3580 4200 3063 8552 
1835 6067 6782 6736 14170 9243 1451 2834 3339 
4191 3670 17782 4658 9165 3022 5735 10024 4591 
524 5008 776 5484 5500 5534 1821 10233 14611 
3866 2251 8924 1098 8466 8491 10886 7461 3526 
2018 5192 1101 5234 2969 1951 5808 13563 14577 
4000 14288 2124 10270 6301 2283 14715 4758 7705 
5031 6410 17432 3375 810 4948 4732 5746 12713 
9982 1294 182 2965 1695 711 4220 12252 8096 
6830 6581 3105 5683 3419 1502 14884 1164 11457 
11700 6250 8773 2022 943 376 5663 321 1659 
2777 8484 8151 10386 15104 8172 3836 15968 16623 
7991 9952 2300 4630 6231 12410 7810 15583 9223 
828 16439 11542 9889 11262 16760 2851 10032 15785 
6272 15189 14012 10499 16602 15033 6566 1938 4470 
4614 15395 14869 17530 6209 6168 6944 5648 15302 
4438 16771 16856 13949 11665 11824 10245 5842 9482 
7385 8488 1963 16220 2505 16006 10807 2216 4993 
16814 14982 14487 12695 11022 16469 11793 4786 10095 
10022 14928 17394 15430 10532 12304 13324 9725 8026 
11812 11239 17122 6466 15556 16307 1836 9258 823 
14566 14650 8353 3597 4816 12403 5216 2811 14134 
8065 7829 3559 2397 11340 13263 14737 16396 6860 
2791 13867 162 7460 14661 14852 7216 8194 10511 
14351 14745 13777 5980 13210 15359 16952 10446 14863 
4593 9003 14245 13009 12031 9661 17565 7463 9073 
7180 17577 316 7082 7013 518 10834 8378 14101 
1010 12846 13673 13050 16537 1828 13022 14877 11505 
7470 15083 5645 8342 11301 17012 8771 12110 11462 
3964 7183 16226 5839 14550 13386 15110 7253 15985 
7429 15039 16278 12327 143 15100 13994 8558 1558 
17850 14789 5856 777 10870 13419 5127 16447 5604 
10954 12001 5276 8134 15576 3590 14414 16917 8422 
1680 9108 14920 9092 5889 466 1392 121 13871 
14427 9765 12045 10816 16130 891 4273 550 17648 
7063 10286 14291 14020 9103 14044 17625 2107 15008 
7989 6928 11014 14942 7781 10256 869 5941 5002 
15932 11316 17016 719 17611 14760 17274 13054 11475 
16729 14673 9331 11375 812 9353 504 16400 14881 
8772 10933 1147 13755 12326 16821 14651 16381 14787 
5061 10408 17178 13039 3919 7789 11299 12856 11428 
15465 14902 4458 5544 3415 17507 758 1313 14163 
12444 15774 5847 10610 13430 9069 3405 10882 6396 
2159 1223 49 10102 8664 2712 15207 16320 15020 
7446 15836 16328 5880 4327 17057 3467 15521 1870 
4877 15860 1993 15065 8000 6908 13950 12902 15178 