# vtk DataFile Version 5.1
Generated by LIGGGHTS
ASCII
DATASET POLYDATA
POINTS 17850 float
-0.0155907 -0.0198521 0.00204774 0.0145522 -0.0093072 0.00219261 0.0162344 -0.00913509 0.00225037 
0.0144645 -0.00228313 0.00205903 0.0249098 0.0155563 0.00199851 0.0176131 0.0209224 0.0018994 
-0.00398505 -0.0290615 0.00236451 0.006507 -0.027997 0.00222283 0.00751248 -0.0284581 0.00235988 
-0.0109357 -0.0259307 0.001834 0.00752728 -0.0250288 0.00222683 -0.00125345 -0.025395 0.00215127 
0.00210824 -0.0251372 0.00203714 0.000502181 -0.0244304 0.0024006 -0.0160388 -0.023351 0.00226512 
0.00647553 -0.023017 0.00229695 0.016452 -0.0233373 0.00229586 -0.0179466 -0.0230965 0.00232369 
-0.00273658 -0.0220525 0.00225133 0.00522594 -0.0211665 0.00210108 0.0201638 -0.0212922 0.00220436 
0.00629393 -0.0215174 0.00207783 -0.00655311 -0.0189999 0.00192952 -0.00375442 -0.0199877 0.00222645 
0.0163827 -0.0197187 0.00232675 -0.0128465 -0.0190071 0.00210907 0.0131571 -0.0189903 0.00218688 
0.00254586 -0.0183968 0.00192384 0.00383468 -0.0184574 0.00182769 0.0154542 -0.0191134 0.00220976 
-0.0177537 -0.0175672 0.00229088 -0.0186129 -0.0169108 0.0021255 -0.00760728 -0.0163601 0.00190023 
-0.00284603 -0.0176485 0.00257109 0.00114272 -0.0155644 0.00202942 -0.0203803 -0.0151603 0.00218372 
-0.0148878 -0.0151227 0.00191005 -0.00776344 -0.0152508 0.00199039 0.0142302 -0.0156778 0.00197511 
0.0151652 -0.0147782 0.00213842 -0.021383 -0.0144959 0.00201406 -0.00747522 -0.0137829 0.00184156 
0.0104932 -0.0138113 0.00181525 0.0129741 -0.0143105 0.00202893 0.0141093 -0.0141928 0.00223229 
-0.00568595 -0.0116985 0.00196246 0.0128722 -0.0121801 0.0022278 0.0134227 -0.0131939 0.00215265 
0.0157668 -0.0129385 0.00201363 -0.0220518 -0.0111291 0.0021861 0.0111643 -0.0117568 0.00192413 
0.0153089 -0.011955 0.00224198 -0.0273024 -0.0109427 0.00217675 0.0143288 -0.0112429 0.00208457 
0.0247291 -0.0118575 0.00218594 0.0135379 -0.0101373 0.00213876 0.0170825 -0.00988538 0.0022383 
-0.0280226 -0.00872244 0.00214708 -0.0221632 -0.00876654 0.0020949 -0.00689794 -0.0102226 0.00230183 
0.013062 -0.00848611 0.00200128 -0.0246801 -0.00863283 0.00205528 -0.0235624 -0.00744814 0.00196555 
0.0128553 -0.007335 0.00211856 0.0141247 -0.00829799 0.00218488 -0.00466048 -0.00763136 0.00187315 
0.0110997 -0.00722644 0.00210165 -0.0230297 -0.00649067 0.0020468 0.0168631 -0.00627739 0.00229303 
-0.00247118 -0.00401256 0.00215711 -0.000570498 -0.00500205 0.00193906 0.0131875 -0.0061978 0.00214432 
0.0147638 -0.00598924 0.00228464 -0.0259602 -0.00436138 0.0020269 0.00142647 -0.00516523 0.00175944 
0.0120851 -0.00509485 0.00207396 0.0111141 -0.0047679 0.00199254 0.0155958 -0.00431013 0.00229667 
-0.0256026 -0.00222718 0.00191248 -0.0109004 -0.00365663 0.00215634 0.0095913 -0.00376599 0.00203668 
0.00121549 -0.0016083 0.00178556 0.012411 -0.00258004 0.00221811 -0.0129634 -0.000941984 0.00178018 
0.0125911 -0.00133515 0.00224623 -0.0123283 0.00133467 0.00223015 -0.00988942 0.000975671 0.00227213 
0.0102932 -0.00163705 0.00208022 0.0139747 0.000200787 0.00200965 -0.0174813 0.0026451 0.00205907 
0.00987312 0.00141595 0.00203583 0.0102816 0.00258276 0.0020963 0.0119416 0.00307452 0.00207511 
0.00458888 0.00443527 0.00185126 -0.0239496 0.00532374 0.00183345 0.00909217 0.00586254 0.00217944 
0.00782106 0.00621361 0.00235095 0.00463232 0.00759369 0.00189465 0.00577289 0.00819348 0.00201749 
0.00206431 0.00823452 0.0018805 0.0134996 0.0114459 0.00211569 0.0147871 0.0107238 0.00212422 
0.0161393 0.0124342 0.00205493 0.021713 0.0126536 0.00209228 0.00198046 0.0129244 0.00202649 
0.0135394 0.01429 0.00214716 0.0200981 0.0141633 0.00213543 -0.000721705 0.0132618 0.00179208 
0.0215654 0.0158167 0.00201687 0.00158087 0.0159502 0.00190625 0.0138056 0.0166956 0.00214262 
-0.0171004 0.0163673 0.00197564 -0.0105077 0.017916 0.00210031 0.0109581 0.0185892 0.00210893 
0.0204531 0.0186526 0.002066 0.0228906 0.018481 0.00327012 -0.011669 0.0182389 0.00211798 
-0.0166083 0.0192447 0.00185289 0.00641006 0.0203232 0.00207241 0.0100577 0.0192659 0.0020906 
0.0207257 0.01939 0.00376497 -0.0130995 0.0206009 0.00199303 0.0109825 0.0198752 0.00200605 
-0.0124992 0.0217645 0.00186796 0.00397382 0.0228836 0.00215204 0.00514823 0.0228882 0.00206045 
0.00877891 0.0223299 0.00209657 0.0180391 0.0218664 0.00196033 0.00370058 0.023955 0.00198956 
0.00475748 0.0251209 0.00203329 0.0115114 0.0240763 0.00217105 -0.00115757 0.0263462 0.00209827 
0.00269558 0.0256548 0.00211998 4.17656e-05 0.0277052 0.00206949 0.00352147 0.0275524 0.00206485 
0.00805881 0.0262819 0.00199946 -0.00307627 0.029269 0.00209154 0.0104612 0.0273509 0.00203622 
-0.000416595 0.0287002 0.00217701 0.000737106 -0.0293111 0.00239427 -0.0021863 -0.0284102 0.0021337 
0.00501122 -0.0288979 0.00253586 -0.00412416 -0.0278606 0.00211535 -0.00324503 -0.0270675 0.00209335 
0.00147703 -0.0283116 0.00247823 0.00356255 -0.0272699 0.0022551 0.00459729 -0.0278418 0.00227226 
-0.000977009 -0.0267214 0.00218212 0.00166377 -0.0261188 0.00228157 0.00890995 -0.0270766 0.00215565 
0.0114756 -0.0270557 0.00219657 -0.0133839 -0.0259993 0.00183981 -0.0096206 -0.025686 0.00190437 
-0.00374611 -0.0259644 0.00199347 -0.00240644 -0.026252 0.00221897 0.000708852 -0.0268224 0.00229959 
0.00299432 -0.026144 0.00264685 0.00518803 -0.026039 0.0022581 0.0108161 -0.0259963 0.00218011 
0.0132453 -0.0261187 0.00223181 -0.0154814 -0.0250458 0.00220029 -0.011569 -0.0246792 0.00221239 
-0.00853425 -0.0259887 0.00181304 -0.00246653 -0.0243172 0.00203521 0.000664839 -0.0256878 0.00210755 
0.00643541 -0.0252955 0.00220512 0.00852772 -0.0254165 0.00228481 0.0121225 -0.0258794 0.00223257 
0.0140367 -0.0253287 0.00216728 -0.0135022 -0.024868 0.00198214 0.00327912 -0.025012 0.00235561 
0.00431288 -0.0253162 0.00239709 0.00712096 -0.024052 0.00238425 0.0105781 -0.0249422 0.00220067 
0.0143958 -0.0242214 0.00231357 0.0154195 -0.0249458 0.00207572 -0.0170626 -0.0239722 0.00252088 
-0.0151212 -0.0240483 0.00195548 -0.00367902 -0.023831 0.00207555 -0.000517129 -0.0241998 0.00266305 
0.00221949 -0.0240877 0.00230554 0.00899374 -0.0239522 0.00218552 0.0119784 -0.0246571 0.00227169 
0.0175646 -0.0235435 0.00225439 -0.00741734 -0.0233287 0.00210155 -0.00616616 -0.0234638 0.00197268 
-0.00400763 -0.0226704 0.00227954 -0.00228739 -0.0231081 0.00201435 0.00530046 -0.0232682 0.00250538 
0.0104526 -0.0231405 0.00219823 0.0127678 -0.0232269 0.00224809 0.0139442 -0.0232057 0.00210948 
0.0185377 -0.0227613 0.00191287 -0.0188164 -0.0225455 0.00194724 -0.016663 -0.0218208 0.00223437 
-0.00626371 -0.0223323 0.00198419 -0.00415169 -0.0215524 0.00222683 -0.00148432 -0.0223008 0.00237863 
0.00200663 -0.0225383 0.00231458 0.00310229 -0.0229024 0.00231057 0.00421078 -0.0222488 0.00238373 
0.00802068 -0.0234939 0.00215468 0.00895189 -0.0227971 0.00198649 0.0111084 -0.0222148 0.00223568 
0.015441 -0.0227861 0.00235448 -0.0197767 -0.0214767 0.00217247 -0.0177455 -0.0213632 0.00230249 
-0.0141304 -0.0219188 0.00194736 -0.0118135 -0.0219402 0.0019425 -0.00192224 -0.0212078 0.00228804 
0.0171149 -0.0214149 0.00224241 0.0183055 -0.0215827 0.00219257 -0.018704 -0.0206058 0.00211729 
-0.0140676 -0.020563 0.00193166 -0.00915373 -0.020758 0.00209239 -0.00832192 -0.0215659 0.00221417 
-0.00702229 -0.0215197 0.00217212 -0.00526762 -0.0212813 0.00245237 -0.00316366 -0.0209233 0.00263854 
0.0030062 -0.0217576 0.00220805 0.00394588 -0.0211316 0.0021988 0.00718105 -0.0221975 0.0021578 
0.0092677 -0.0212722 0.00215743 0.0102781 -0.0204071 0.00202806 0.0114211 -0.0206094 0.00231264 
0.0124397 -0.0211008 0.00208588 0.0145327 -0.0209213 0.00213903 0.0161178 -0.0208436 0.00240433 
-0.0162343 -0.0208497 0.00202084 -0.00986794 -0.0199273 0.00197918 -0.00805176 -0.020481 0.00208037 
-0.00579688 -0.019865 0.00203455 -0.000521555 -0.0196707 0.00239294 0.000283616 -0.0208613 0.00225321 
0.00215051 -0.0211007 0.00220567 0.00600834 -0.0203226 0.00215149 0.00715716 -0.0203413 0.00207993 
0.0191549 -0.0208326 0.0023366 0.0198764 -0.0201081 0.00226085 0.0209532 -0.0204979 0.00214726 
-0.019494 -0.0190603 0.00231251 -0.018428 -0.0193481 0.0022896 -0.0174633 -0.0187002 0.00209623 
-0.0153161 -0.0186667 0.00181446 -0.0089181 -0.0193538 0.00208304 -0.00547593 -0.0187693 0.00225647 
0.00316266 -0.0193236 0.00215487 0.0102498 -0.0191286 0.00214881 0.0112993 -0.0192578 0.00211482 
0.0143895 -0.0191634 0.00222385 0.0180002 -0.0190158 0.00225087 -0.0210423 -0.0191101 0.00223165 
-0.018776 -0.0181195 0.00234426 -0.00777125 -0.0189047 0.00207663 -0.00351361 -0.0185961 0.00227051 
-0.00234564 -0.0186631 0.00214045 0.000314821 -0.0186925 0.0022288 0.00834184 -0.0183297 0.00211355 
0.0131458 -0.0178811 0.00213893 0.0234803 -0.0176649 0.00190757 -0.0230841 -0.0181938 0.00219987 
-0.0220261 -0.0179483 0.00230998 -0.0138563 -0.0183209 0.00195817 -0.00552534 -0.0176412 0.00198847 
0.00138183 -0.0184623 0.00223059 0.00538763 -0.0175775 0.00183059 0.00637975 -0.0169408 0.0019847 
0.0108943 -0.0182296 0.00203663 0.0150308 -0.0179324 0.00214651 0.0162782 -0.0177731 0.00232619 
0.0174479 -0.0179541 0.00220937 0.019954 -0.0173753 0.00210514 0.0221335 -0.017675 0.00196513 
-0.0167408 -0.017067 0.00211831 -0.0118139 -0.0174316 0.00181049 0.000150786 -0.0176278 0.00217387 
0.0037144 -0.0167683 0.00185366 0.0124457 -0.017038 0.00196521 0.018603 -0.0169408 0.00212051 
0.0241766 -0.0165931 0.00189736 -0.0192839 -0.0156422 0.00211224 -0.0157163 -0.0163037 0.00187486 
-0.00903465 -0.0157916 0.00195956 -0.00650705 -0.0165134 0.002167 -0.000835424 -0.0170436 0.00211301 
0.00188912 -0.0163635 0.00228672 0.00331266 -0.01539 0.00191783 0.00880267 -0.0165297 0.00187 
0.0137734 -0.0169899 0.0020934 0.0175167 -0.0163941 0.00224054 0.0192312 -0.0159143 0.0020706 
0.0204099 -0.0160199 0.00225952 0.021553 -0.0161765 0.00210718 -0.0181714 -0.0157355 0.00217869 
-0.00663004 -0.0154166 0.00203953 -0.0052839 -0.0164099 0.00223561 -0.00402223 -0.015964 0.00217949 
-0.00314213 -0.0150837 0.00208118 0.0126662 -0.015445 0.00202515 -0.0243981 -0.0161628 0.00214134 
[...]
POINT_DATA 17850
FIELD FieldData 6
id 1 17850 int
8788 8729 3155 8312 12155 12687 8280 1895 16934 
12168 17481 3926 11873 12052 7450 10464 4873 16339 
8495 332 4534 12061 11069 14539 1725 2759 16400 
17299 16878 6795 4705 3764 5449 10164 12011 8055 
15985 7588 1739 8853 10691 11256 12226 10423 15034 
5546 5749 7437 16126 15963 10924 6321 11065 4685 
16673 17573 15021 7326 9748 14956 6836 2711 4963 
10353 12042 5508 4604 11319 13641 16588 14016 1268 
2729 12780 17817 17843 6506 1854 3028 11184 9645 
10596 14708 10249 657 7633 17320 11390 15842 10448 
10966 5998 6728 10933 11345 6865 885 12343 11921 
11791 2014 13647 9152 10098 13085 13774 12608 6827 
1309 17097 7108 9609 4719 15956 17371 11158 7067 
16353 9112 10182 3621 16692 12342 578 15803 3063 
11759 12088 2714 794 17528 12436 3515 11170 13781 
6493 4714 9657 567 15136 16910 2113 3438 1601 
14813 7183 15062 1397 14345 12632 3344 12573 8051 
7759 6215 16447 7063 2406 12315 15492 11360 5265 
17809 6735 12566 5675 5238 13245 10790 3841 12558 
9084 15282 734 7535 10586 5202 11562 5895 3696 
10428 15167 15011 4881 12832 8213 6448 10718 14158 
16546 5161 11084 6248 16025 17805 4474 3492 4559 
16522 7698 1294 17759 10916 7488 142 16620 6479 
8488 8941 7699 8478 2488 11553 9504 3651 1695 
2101 10556 6949 556 5143 11821 12029 15966 13472 
10168 5961 3672 10815 15928 11450 9448 544 6804 
17668 14265 15298 17253 17545 466 14498 10455 10714 
5558 10200 7978 5351 16298 17448 14462 14006 13050 
13674 9091 14046 16142 9960 13539 9217 8844 8131 
12517 7438 5648 4780 8316 7796 15207 15526 5969 
13067 707 12435 527 16834 12317 2618 16965 8854 
816 16118 9350 17486 14551 147 13910 11427 14490 
17036 13225 1455 3290 3999 9372 15853 7222 12896 
5725 13231 2024 10619 13625 12160 3962 14811 6667 
7399 4671 11100 16410 3480 17051 2229 17571 4989 
11726 15953 606 1708 760 5772 9297 16814 4011 
8142 10230 3756 9924 6451 17138 1680 8318 13487 
15747 12178 14469 17148 8695 12245 3106 9064 8093 
11257 16095 5053 10682 2720 6894 3623 12373 6906 
15990 3911 7363 9440 9810 9518 8814 11906 5881 
4649 8377 2000 2572 12947 1814 8005 14667 8645 
16018 15423 10637 14897 9526 5795 11888 13660 9771 
2991 8795 3812 1408 2656 10501 8855 10995 5179 
177 9867 17022 8797 5599 4880 2975 10773 11777 
5363 12455 2632 15470 9281 10104 17791 5845 10209 
14906 8701 160 4576 6179 17151 13049 8406 2302 
3381 6155 10458 4676 942 16129 8284 3599 8476 
8404 7466 926 15962 7745 9913 8717 2461 9625 
17170 5936 4339 10760 8979 8579 12568 14457 8520 
14507 16196 15080 1177 6517 12308 5256 5114 7289 
14380 6966 3348 498 8302 10049 15337 5988 7832 
16642 6705 4933 9011 5299 9521 15780 6603 17103 
10861 9061 12006 12772 256 5813 13726 5701 17058 
7561 3666 14494 3923 4841 3284 1792 15721 9892 
3192 9512 17773 5929 9009 13745 3202 3440 14354 
5570 12682 9650 2864 6356 17340 14021 3019 7344 
7232 15781 12647 10039 4834 16503 14429 10312 4092 
10782 15217 12032 9386 12792 2338 1977 7355 3483 
8863 8471 5933 3026 13716 5324 9666 16016 8068 
13764 6284 12084 1622 1757 12291 9075 8653 996 
12715 9515 15508 4956 6263 1936 14619 414 17059 
11323 15799 1145 8083 3793 13826 193 2295 15917 
5263 15827 11863 5631 4204 10240 13063 14929 17627 
16080 1600 16922 13736 4046 7070 2470 11710 6917 
6182 5922 231 9918 14977 9374 12944 15554 10520 
13885 13664 14308 12064 757 11887 15166 7149 9606 
2619 7251 2263 1984 1896 3132 14652 16161 12382 
5502 1496 3806 11655 387 5812 6768 17272 10746 
9457 3267 17265 9966 2003 6686 5863 2071 4846 
2566 4343 11756 11059 14246 4386 17466 6259 1001 
17273 7128 8524 3921 1781 7317 3872 17268 5926 
5654 1753 1900 14732 4031 16281 11897 3613 3509 
9728 11442 17724 9082 6140 8499 5820 11157 3847 
10469 16769 14098 6274 3359 15831 11841 8383 15127 
9392 11648 8566 8122 8601 55 10935 12887 7840 
806 3961 9621 5694 1304 1643 9840 16295 15679 
15919 5175 1908 15543 7885 8026 15060 12788 11800 
132 16205 4672 15477 7723 8933 14313 78 11747 
1164 12765 4090 2545 15093 13842 2489 9236 17071 
785 2074 2031 9941 13278 16368 2550 14020 15616 
16742 5492 4811 12609 12869 17541 2836 16504 17390 
14112 12147 5405 6910 9054 10954 8363 2007 17839 
4209 10732 5146 285 15016 9347 3658 7656 8719 
8966 15941 9330 126 6854 5048 1648 2513 15968 
10622 9122 16662 17598 7589 3713 12663 7765 10041 
11382 17357 14868 3471 5008 10233 17804 12482 9637 
8772 14487 2775 4390 15570 2781 5697 9940 10174 
3338 3884 5605 1659 17295 2735 173 7199 9090 
15881 13211 6296 810 11252 13867 14420 10183 6794 
15727 10285 13687 14382 4557 13817 8285 13039 5092 
5519 4690 7074 10840 5924 4887 9135 11849 11751 
7625 14245 17402 11431 11327 3436 10807 10838 15238 
7751 12555 9232 14327 7239 9573 2083 1741 13980 
8787 10905 14616 16157 13462 15583 1462 3869 6586 
3940 1004 11940 2057 11606 358 699 17379 9087 
304 15495 2262 14757 8624 10532 13139 10568 4520 
3092 17828 418 12026 17847 15828 14173 12110 7116 
921 1140 5574 14153 9485 2852 7134 16737 15580 
11619 13316 8726 6847 3590 7259 9012 14150 1489 
16258 11258 5305 3686 7503 4812 1968 2055 1617 
2742 2920 11816 12939 7218 14543 6351 6843 1688 
13262 9003 17669 14358 9558 16192 6488 2774 14877 
15434 4405 4115 17562 12587 5036 16958 16687 13667 
9684 1089 7545 4021 153 3177 10498 128 15706 
17156 14950 17579 9099 15424 15325 15063 12881 12669 
15268 4588 884 16749 7546 518 6085 6700 14106 
14954 6674 10975 11572 11917 11720 14696 11973 10769 
15576 1430 630 6125 9315 12618 6880 11169 14033 
1555 13418 11366 10019 15052 16457 9385 17686 8654 
1342 8631 12070 4716 13560 143 6472 9574 16902 
9005 1036 4767 2849 4270 10416 13465 3714 497 
6541 3933 13129 431 17399 5469 9038 11778 8502 
1887 1225 11460 821 14404 723 2626 6639 7419 
6915 3583 8118 1025 9405 4807 14004 7955 6323 
9160 2861 421 932 234 744 7649 14636 12235 
10068 1797 3194 16379 16042 7984 4711 2218 1320 
16193 6610 8872 17313 1575 13859 4070 10263 12165 
710 2879 10959 11566 3357 13963 11278 12753 4102 
15499 6153 11904 14986 4267 3511 1298 9575 7127 
1281 5997 6841 4308 8044 14504 5306 12282 286 
11695 7220 9933 7173 7880 4612 13926 3712 14615 
11338 4644 17827 525 9133 6150 5441 883 6275 
15171 14492 2336 7480 16526 14751 1080 537 17031 
989 6501 14532 11725 11233 15592 1853 1253 12302 
8104 12528 9795 15081 6784 14481 4556 16318 16707 
2255 11941 8593 12075 12497 7474 14593 2652 3235 
6213 914 2968 14926 14431 15755 6071 13311 17437 
14060 14990 9634 646 9944 15350 9731 16032 158 
6233 9021 1175 9300 16082 7710 4886 9806 12097 
9139 9149 14794 3236 16900 9614 14847 4051 5419 
7154 9037 6980 4913 2426 11840 9377 9696 17222 
2708 7936 5548 1074 2363 1941 11865 6063 5000 
3765 17609 1472 14418 2642 14040 17487 9636 3949 
4250 16746 910 5378 133 5840 8195 15664 8481 
11092 12548 5304 6656 13148 17512 13351 16993 16375 
16119 3616 9983 1123 9717 11093 11498 10775 1353 
13369 2616 5096 10384 17623 8015 6711 8295 15201 
4756 11153 1034 1774 2584 5440 11635 6872 276 
8500 15960 10944 9873 9894 12306 11331 7570 1318 
10235 11159 5339 15548 11673 9719 14311 12732 2911 
14425 16751 8947 16004 16304 10288 11143 10326 2530 
14378 9052 14506 12970 15748 13477 14444 10812 13619 
11352 9183 7217 5357 17807 3377 3380 17061 8993 
15861 2203 4706 9849 1387 14296 7608 2420 2341 
10986 11804 12076 1723 3920 6790 12705 8668 14889 
17106 11472 17301 4531 17743 1775 11885 10712 17439 
7981 9389 10996 7358 13675 8354 458 13232 16796 
16713 11757 8016 15336 15868 11925 1886 2072 1654 
12220 17664 12041 6938 2828 14254 16559 13064 16725 
1146 8646 11209 3474 9140 8269 7982 9272 12297 
11790 13605 17580 2884 7970 2147 6109 7793 10932 
3709 15759 3794 9220 7920 7764 13766 13947 2450 
4875 7666 16535 10217 5033 8393 12090 4994 10163 
12811 17050 2995 729 17554 11312 16479 14998 5090 
1362 11611 5766 6379 16992 12251 15886 14584 6572 
16646 13719 2548 14702 3763 3120 1946 11794 12132 
7855 9373 14930 2746 9877 8095 11524 2753 14439 
4408 11857 4914 12598 5688 9186 3970 6400 13934 
6648 1013 5109 571 12740 12082 1835 3584 10623 
15696 5012 16107 12370 17256 352 8508 17568 4290 
658 13714 15401 17254 17072 622 9143 274 1579 
3088 13635 9465 2761 1815 11810 6802 4468 12592 
13127 15621 12430 16947 846 4718 6644 7207 6679 
7384 6920 17213 7762 999 8465 5711 4703 14678 
5098 12678 13224 16398 4634 9204 17662 2570 12557 
3197 5367 15157 2831 12260 2196 6236 5384 365 
8289 4298 11355 2245 12943 8431 7346 15164 14756 
1687 11307 485 5576 16034 4627 2244 12247 16954 
8464 6611 447 7812 7064 11018 5563 8357 5312 
10780 16323 7041 1357 11017 11120 11610 1696 10719 
14295 11843 17613 4521 8347 5439 15456 12324 7897 
4984 14788 17079 5108 9683 3482 14381 5122 16607 
11813 13618 4276 16819 11203 12494 1160 5916 11119 
6254 3496 610 11641 680 523 3719 10786 4733 
4941 12374 17143 11328 9987 1173 15796 7771 1590 
13710 4151 11570 1532 2098 8902 5276 17648 8737 
515 4484 12457 6416 15891 2965 16860 1329 2005 
14368 10124 10534 12481 1276 16112 10028 16884 11273 
962 3457 6288 11789 12825 735 8538 9957 13257 
1606 16556 3011 14565 6372 11749 5858 4027 4479 
16103 16240 14199 14914 6130 16879 16370 7917 10834 
17131 5039 12164 11421 4993 3104 4331 15061 2328 
9443 11005 16976 17090 12310 15932 13018 666 4144 
5622 14661 1000 10744 8766 14012 13515 14255 2168 
4717 14192 4228 13308 8181 11654 6726 14392 2018 
2374 15072 2549 15365 6261 2407 13088 10142 11477 
4429 5542 8989 15770 2837 2474 11818 12394 16782 
480 12979 11154 6295 9254 6006 8689 5318 2446 
7206 4464 11972 9499 15321 17490 9740 2022 6304 
11429 7586 3052 415 5006 7947 13470 4146 15538 
13883 17122 15077 1928 16950 1187 10410 7095 16771 
1751 9155 631 441 12916 11290 15707 12129 17353 
14869 5855 16760 9660 166 17497 11600 12545 14113 
1190 4491 16518 8378 17174 12073 1667 13720 11379 
14865 11126 3369 10829 17432 14049 10442 1872 9812 
8094 1732 11246 1607 13791 16533 5480 1500 1963 
2511 4404 17212 14958 6018 15005 10090 11301 14596 
11552 15845 11424 749 6328 14291 5695 8443 1180 
11425 5838 14325 2339 4168 11529 13077 4868 15469 
14177 12590 9649 15102 13865 14604 15551 3724 5272 
3032 11823 11987 6050 1232 13941 2924 2888 1939 
8039 6593 6839 7692 13821 10837 13142 13103 3744 
15910 11207 668 15846 14069 10463 7862 4976 10006 
1415 14982 4544 3350 14419 14713 3964 9604 4362 
1766 17165 17430 10414 10266 1780 7257 12837 7316 
2822 2384 5757 3042 8496 3524 14704 10673 17021 
11672 17433 14088 9187 924 14784 13330 15480 3102 
1409 6706 12521 4515 5786 17198 11353 15160 16570 
11270 1980 16611 11592 7203 7250 1755 16405 4661 
5386 8683 17290 12836 17583 7106 9412 3947 2068 
7592 12502 5275 17360 6114 16789 2418 110 10600 
2762 15771 13146 10190 1685 13109 6689 16594 5748 
13161 15373 6185 4234 15073 16933 777 12880 1670 
6995 481 4458 12355 5747 9130 7555 12199 7112 
1343 13863 721 6969 17140 15451 2734 17408 10368 
1395 4877 7403 2159 17255 11329 7975 12402 2500 
1990 11148 6096 13900 11568 13582 14550 6992 8123 
10919 6244 12963 10365 12345 7724 7998 1699 14157 
2475 13787 17280 8313 17829 9563 14578 7856 16170 
3726 3226 6074 11476 14955 5437 2941 955 12642 
2499 6530 10355 12179 3091 11738 5358 13682 14634 
15897 13392 7719 671 15835 16436 17471 12009 4079 
12014 2638 797 9105 17768 5864 16407 16866 15976 
6264 10546 13895 10969 9110 6704 10831 6405 1082 
11315 14171 16245 8516 8859 14210 11872 9101 15497 
6237 12611 12050 5390 6224 13447 5952 8250 8982 
6669 13419 7121 4465 3706 15512 3985 17532 17116 
7476 7124 16243 1122 1230 9587 2405 2290 17267 
17292 14768 4320 17601 3462 3152 2119 11803 13986 
4274 7038 9353 10979 11736 15728 14388 17755 7145 
15572 9963 4325 11537 6291 5814 16802 14781 1279 
12723 2602 14162 16739 2665 13604 7048 5977 8546 
15908 8060 12037 4402 444 6511 1898 9002 10244 
6194 8603 14592 460 8612 13933 13997 14879 3716 
13893 647 16362 1528 6685 15122 7869 14326 7903 
7262 16017 2769 9647 8845 7789 17677 14116 12870 
557 13923 15198 7469 8450 9881 727 3278 5544 
3346 16429 7790 16723 12244 6560 15586 11699 13020 
6941 432 16211 10764 14830 260 3204 10093 9017 
17784 10713 5219 1040 17030 4423 3277 15040 5485 
2479 11730 320 16542 7119 10327 718 1106 11289 
16213 13076 4439 6065 16360 2896 10329 5177 2457 
7396 4453 24 17057 2260 8205 13494 10394 5559 
15514 7036 13179 9584 10311 2817 10012 9200 73 
8124 4018 16906 522 15192 9216 1169 8303 3072 
2601 11164 6476 5963 16566 7434 13755 5537 7797 
4197 1002 10159 6407 17459 956 12386 16890 14816 
3361 16666 3738 6164 8427 9659 6577 1402 16215 
4368 11918 235 14402 14508 16460 15694 6551 5567 
3983 13993 13819 17835 5798 13266 8326 16683 4407 
1328 7233 12368 2800 7240 2721 15113 3919 3368 
9441 7029 6884 4364 11952 16767 15408 14786 14663 
10179 11583 4888 6911 7081 16857 880 519 15287 
1734 4619 17588 903 247 7686 10977 4111 4951 
11003 3887 6078 17095 6989 8399 3475 9414 15722 
14654 12479 16565 12962 15446 12774 5491 17449 12248 
13297 4049 13908 4393 4995 10443 6401 12472 5289 
13964 16187 17089 8433 1907 11510 1377 14855 10212 
5554 13095 14455 10025 17243 8368 5806 7275 15278 
9599 15666 17319 1186 683 1789 10272 16183 5354 
6654 8903 9409 10545 4262 7680 7547 15046 8080 
10187 12118 15149 7192 5316 7066 2850 6373 7734 
1593 13166 2748 15656 3772 1039 6696 13229 1257 
3056 16283 3435 1348 14092 16276 9784 11931 13023 
15745 6793 15176 11713 7193 7847 10460 11459 2778 
9862 419 17504 11967 9417 15435 12145 4459 8703 
15870 9635 15209 11969 9416 2646 5872 14773 13879 
15276 13724 7560 9496 3652 16730 1458 9916 16614 
12847 15894 12967 12021 1863 14681 11656 17026 11598 
4960 13551 4229 15313 16437 5259 11227 13480 6529 
15618 7155 7065 6184 8881 13214 9835 10490 15614 
14299 13644 12638 4731 2369 10426 7510 7184 10337 
15931 355 795 9206 11557 9498 16349 1616 13550 
3988 8424 15981 1529 591 5541 1603 5410 13840 
6381 16027 10973 3464 13380 17455 13279 512 10659 
2466 8274 14262 3948 9535 13251 17169 11467 1319 
3090 12952 1634 15784 3731 8756 2228 2175 17220 
826 7518 12734 3730 15978 2436 12067 2013 2051 
4029 7851 12077 10892 10449 17141 2121 1686 15806 
10686 11737 10021 10274 16848 1559 4944 875 17325 
3212 4900 8103 2930 636 5125 11614 6765 12128 
2238 10949 13382 15219 17514 12610 11038 4176 4803 
8602 17560 5121 15685 7695 2895 5993 171 4500 
3275 1550 12855 5585 12603 15650 17413 15479 13053 
1432 15351 13187 11712 9540 10059 9438 17041 3193 
4039 5593 1875 8228 5596 1144 7050 11573 6634 
13396 17818 13042 766 2932 1509 1612 5536 12492 
12589 16433 12934 4238 10191 13223 3629 14309 14362 
11895 2610 16724 3234 398 6132 16303 16296 5459 
1255 4065 9425 3404 16166 8276 7741 9596 16624 
12392 1167 16800 11796 1302 5938 2001 5586 11002 
6985 11023 3220 740 10208 16246 2790 13712 15810 
6426 15775 16870 917 305 6212 8660 13343 7824 
7339 7550 7176 16764 8355 9460 8712 2804 3268 
282 12783 3077 5095 5172 7286 10472 17556 12562 
4349 5661 10650 16523 10238 15937 2012 8411 16836 
611 8182 15182 2847 9238 12002 7331 130 2312 
2237 3376 6766 7538 16314 7711 9 11471 14375 
1521 9571 8749 10547 17639 5338 5999 10585 10204 
15048 4307 4727 12432 16961 5217 1512 16865 11866 
15476 9741 3430 4251 1543 1092 4273 6778 12599 
69 5774 10001 10567 5826 2485 216 1227 2650 
9597 17282 11078 15342 13874 16077 5500 3836 12408 
605 15903 11685 2657 16381 9794 1163 52 10032 
6141 10302 13410 12504 599 14164 4650 3561 7987 
8063 4490 11525 17499 4288 9354 8883 14913 12202 
12280 2484 14270 378 5465 406 14125 12758 6741 
5374 15874 17626 11455 10482 10415 2917 16781 2791 
1782 12940 1843 2827 8028 9117 14384 6135 8809 
3600 10818 11561 803 2575 14286 2473 17286 3866 
2936 9290 8876 17366 15104 12019 17297 16740 5051 
7898 2425 10149 3479 5682 7254 7508 15896 7988 
2454 5106 504 14360 4754 12010 17426 13844 2851 
17629 13785 8032 8166 15860 11893 17445 7256 12197 
12542 12960 10418 6149 12886 6745 13971 6487 17193 
11808 16887 10632 3720 3569 17217 16394 724 9947 
13891 15400 13193 1736 17424 2105 8819 3301 14882 
12688 4974 5355 17251 5534 6456 11204 15711 8413 
14819 6425 13577 1909 1368 11809 13327 12246 16431 
5005 10795 11516 12362 12532 9102 1993 17343 16896 
5026 11004 16159 13823 6817 4109 4523 4472 15665 
16545 14778 8721 7181 8958 2546 17204 14056 9176 
12559 16575 15698 4388 775 15141 7439 4363 11891 
16357 16837 5423 9073 14673 6406 10777 6592 1860 
8389 7272 6094 11213 9871 10499 14511 3391 15473 
12628 17377 7944 943 14461 15348 65 14220 13671 
9759 16924 14389 79 4358 11484 12747 17799 3461 
6014 6519 5350 3822 17019 3791 4028 2310 16984 
6829 7823 2355 15700 13043 10203 16104 14843 13752 
5019 9014 291 7001 9100 16218 11851 13659 7949 
10549 6396 16697 8310 8230 10102 8807 15474 16320 
6297 16393 8541 4641 10981 9284 12698 4371 5221 
13924 3813 4406 10791 14902 15189 15404 261 11489 
7392 6437 12950 10617 15684 13975 5986 4550 12383 
10385 12012 5301 8416 2123 15788 7932 1765 16699 
12311 151 379 5955 7604 7427 761 10625 3040 
9834 360 9253 6873 8995 2026 14649 1756 4448 
14597 11116 17803 10 4874 14546 10271 14933 14224 
14836 11690 6473 1922 2176 9426 12942 316 6283 
13119 13959 10858 13123 2744 3429 117 3049 16045 
16371 11445 10739 12190 5964 9753 14559 3002 6535 
8793 3154 11951 10441 249 9664 4038 15980 16365 
17367 886 11229 7368 17218 8364 13350 7007 15105 
9656 4562 1420 5243 16484 10583 17229 7911 7868 
16311 2914 13721 4026 17717 2838 10974 2130 765 
15226 919 6435 11784 16097 5253 2417 9685 1884 
1997 14476 13901 15933 13032 5980 12376 12130 6056 
2988 13207 6105 9567 16925 14383 15569 14800 14406 
13672 4583 6313 3873 11914 5505 4816 7021 16149 
2522 15092 13928 14118 10369 1327 17164 14305 6815 
4560 10990 3228 7088 940 4342 12878 7901 12830 
17025 17113 7599 3718 17412 14274 6076 13174 16791 
11452 4748 791 8571 9860 13884 6781 15186 14618 
3863 10915 5454 13107 10987 4643 8212 10610 10529 
16996 9626 16293 6837 3612 16914 5638 10731 8099 
3006 5646 13304 6202 7235 8715 17139 4595 12340 
2337 9063 5453 15595 13670 10351 16418 3001 3497 
17173 16525 9841 12187 11956 15969 6965 4253 1071 
9661 8199 8783 17084 3446 1063 17355 11106 10307 
4174 5310 584 5444 2815 15438 5105 10345 13408 
6129 7772 12665 4365 9309 4445 13683 11758 1647 
15884 12277 1737 7730 15523 10344 2132 15739 10704 
15882 905 10559 9999 14516 8252 4728 15915 11660 
9607 13463 16289 17400 14231 4792 5671 4665 12270 
10778 8956 6775 2855 12293 12493 3157 1340 3335 
8456 7612 1830 1503 4384 10178 7995 640 10264 
15615 10896 2844 4309 7761 16693 8460 6198 8168 
2059 10507 2600 15108 9151 12761 14249 12161 15029 
10918 7157 13097 13511 4973 10176 6698 12321 15413 
342 2568 15977 10259 17288 1833 13913 8801 10367 
3110 373 11664 4475 937 11957 17678 7650 3783 
17091 1047 277 15818 9468 15043 15561 462 17820 
13054 7282 13172 11101 4770 1203 11963 6380 8515 
335 12537 17721 11587 6882 560 13631 6609 11622 
5902 13338 6345 2011 13175 1475 732 10679 4561 
17382 12964 6271 12363 15234 2360 8198 10581 1567 
16182 13728 346 4799 8340 1112 4007 6536 12085 
4947 9900 16445 4955 5347 15601 14142 13853 809 
5880 13782 6573 3655 17167 11325 3540 2362 16867 
10956 3865 11605 13128 3647 3299 103 15812 15241 
394 17010 10530 948 5017 7892 15173 2451 2444 
5293 983 2215 12833 11337 5356 13026 3550 2922 
11195 5590 11145 13729 4724 8613 3180 7071 7740 
10865 14215 16040 2680 16555 9408 15475 5321 11000 
2675 4962 10134 9985 17404 7052 16831 17029 15765 
11024 7398 3472 3257 11776 6317 3082 3505 13861 
17816 15819 746 2681 3776 8531 696 1864 4199 
10335 7171 5967 3594 14590 11884 9305 5734 1032 
6831 10792 17657 2252 5704 11880 15299 12213 11082 
1054 5782 6486 7224 2342 2668 15205 10234 15290 
13903 12438 12384 17261 3486 15589 1465 10254 2171 
5754 15791 2862 16488 10577 8188 14823 11675 1418 
5343 14969 17666 6235 8534 17339 8091 17349 7899 
8627 4990 16392 7693 2422 4067 4411 8619 12016 
4088 13637 13611 122 14250 4742 3804 3427 272 
11935 15116 6845 3500 14335 3015 1742 10510 4131 
14189 16638 3178 11469 7408 7012 16406 7009 13578 
14029 10247 10733 4517 14825 9203 1978 15916 14542 
14698 4791 11998 7669 6098 1719 15138 2452 15012 
14448 5133 13195 4141 5126 4932 7746 6016 16069 
11280 11149 17808 17231 684 12142 6652 13956 2211 
17003 16490 2577 14610 3899 3025 8473 12726 8119 