# vtk DataFile Version 5.1
Generated by LIGGGHTS
ASCII
DATASET POLYDATA
POINTS 17850 float
-0.000346845 -0.0293308 0.0031282 0.00454036 -0.0256399 0.00363706 -0.0101109 -0.0275309 0.00195819 
-0.00854576 -0.0277475 0.0021357 0.00890521 -0.0260986 0.00307315 -0.0119506 -0.0268023 0.00247707 
-0.00204006 -0.0262832 0.00271896 -0.0149316 -0.0252214 0.00274046 -0.0141778 -0.0254522 0.00151849 
-0.0117786 -0.0257605 0.00182094 -0.0105015 -0.0264043 0.00140812 -0.00666129 -0.0255135 0.00251839 
0.00601635 -0.0249716 0.00452583 -0.0131229 -0.0251686 0.00116634 -0.0103706 -0.0254581 0.00202266 
-0.00864797 -0.0254448 0.00124794 -0.00788589 -0.0251488 0.0023249 -0.00392758 -0.0231921 0.002048 
-0.016618 -0.0241961 0.00195752 -0.0156341 -0.0245491 0.0017232 -0.00603686 -0.0246535 0.00194597 
0.0137322 -0.022479 0.00245248 -0.0175078 -0.0233799 0.0018813 -0.0142499 -0.0241971 0.00104342 
-0.0124069 -0.0237772 0.0019473 -0.0106006 -0.0245488 0.00144288 -0.00971322 -0.0230227 0.00201889 
-0.0038018 -0.0235228 0.00326321 -0.0123285 -0.0227993 0.00112325 -0.0110613 -0.0212523 0.00179913 
-0.00752893 -0.0224193 0.00294136 -0.0068391 -0.0228663 0.0018512 -0.00462966 -0.0224789 0.00282461 
-0.0183652 -0.021266 0.00186675 -0.0160048 -0.0223091 0.00116527 -0.0144858 -0.0230415 0.00159058 
-0.00557682 -0.0218795 0.00289072 -0.00352424 -0.0220458 0.00286001 -0.00267464 -0.0213584 0.00357093 
0.0183687 -0.022848 0.00251995 -0.0203272 -0.0211515 0.00234196 -0.0179764 -0.0201227 0.00205837 
-0.0158318 -0.0209005 0.00169135 -0.0145103 -0.0217722 0.00170105 -0.0124831 -0.0210523 0.00163074 
-0.00931261 -0.0217353 0.00223411 -0.00703369 -0.0213917 0.00204234 0.0206272 -0.0207908 0.00178961 
-0.0200527 -0.0200999 0.00196653 -0.0189954 -0.0195827 0.00209722 -0.00927557 -0.0202317 0.00176525 
0.0160524 -0.0206013 0.00142803 0.0182449 -0.0208166 0.00137804 -0.0219583 -0.0195817 0.00172387 
-0.0211772 -0.0203829 0.00253781 -0.019597 -0.0189402 0.0027319 -0.0167094 -0.0193964 0.0015312 
-0.0118899 -0.0201118 0.00102565 -0.00583235 -0.0210528 0.00198634 0.0126959 -0.0206183 0.00177582 
-0.0226348 -0.0186139 0.00192552 -0.0186512 -0.0185371 0.00220996 -0.0174667 -0.0185795 0.00210974 
-0.0109786 -0.0191027 0.00136071 -0.00620789 -0.0193753 0.00144052 0.0189376 -0.0178008 0.00146055 
0.0218649 -0.0186341 0.00201007 -0.0220729 -0.0180432 0.00279547 -0.0212489 -0.0173482 0.00223198 
-0.0198913 -0.0177325 0.00208931 -0.0145788 -0.0175387 0.00109451 -0.00907096 -0.0186809 0.00104804 
0.0168304 -0.0189899 0.00158212 -0.0233378 -0.0171105 0.00234183 -0.0188547 -0.0170952 0.00195633 
-0.0158461 -0.0172597 0.00180445 -0.0113244 -0.017752 0.00130987 -0.00965885 -0.0175278 0.0011137 
-0.00534513 -0.0175899 0.00166793 -0.0244326 -0.0164372 0.00243346 -0.0228929 -0.0158393 0.00226585 
-0.0223032 -0.0169325 0.00267061 -0.0214992 -0.0160119 0.00248043 -0.020441 -0.0160645 0.00208956 
-0.0171805 -0.0166629 0.00144651 -0.0164399 -0.0161663 0.00240275 -0.00637014 -0.0171344 0.00192115 
0.0145228 -0.0178212 0.00224814 -0.0247651 -0.0154468 0.00181601 -0.0221891 -0.0146217 0.00208547 
-0.00587189 -0.0161274 0.00122333 0.0131235 -0.0171444 0.0022848 0.0174067 -0.0175045 0.000717021 
-0.0236759 -0.0149221 0.0014875 -0.0210926 -0.0142045 0.00208041 -0.0199847 -0.0149779 0.00188536 
-0.0180629 -0.0157212 0.0019251 -0.0174467 -0.0151031 0.00095719 -0.013417 -0.0151401 0.00174974 
-0.0107931 -0.0149942 0.000842809 -0.0089835 -0.014558 0.0014557 -0.00465335 -0.0143675 0.00268893 
-0.00359001 -0.0145687 0.00307134 0.00149934 -0.0150146 0.00436979 0.0136027 -0.016002 0.00207199 
0.0148982 -0.0159429 0.00201659 -0.0245781 -0.0140707 0.00135563 -0.0219229 -0.0134393 0.00192371 
-0.0180996 -0.013677 0.0017909 -0.0129879 -0.0139573 0.00227172 -0.0114908 -0.0140055 0.00140507 
-0.0104481 -0.0132168 0.0019318 -0.00041343 -0.0138058 0.00197789 0.0123316 -0.0158242 0.00174229 
0.0164811 -0.0145463 0.00162988 -0.00896347 -0.0133908 0.00152136 -0.00544507 -0.0123206 0.00106388 
0.0106176 -0.014405 0.00158043 0.0137887 -0.0138701 0.00176572 0.0151816 -0.0143608 0.00158257 
-0.0247949 -0.0127225 0.000770642 -0.0152145 -0.0126778 0.00185798 -0.0110257 -0.0121346 0.00190796 
0.00649854 -0.0130066 0.00119849 0.0073387 -0.0135471 0.0026333 0.0127893 -0.0135636 0.00119007 
0.0143838 -0.0124594 0.00142153 0.0153038 -0.0130149 0.00157854 -0.0263394 -0.0114226 0.00161981 
-0.0199614 -0.0122392 0.00120381 -0.0193311 -0.0108943 0.00165199 -0.0178933 -0.0117004 0.00161413 
-0.0164013 -0.012223 0.00188127 -0.0149033 -0.0115523 0.00144916 -0.0139127 -0.011375 0.00110633 
-0.013025 -0.0116283 0.00169735 -0.00914709 -0.0108215 0.00189982 0.0179264 -0.0121459 0.00149354 
-0.025112 -0.0102739 0.000560997 -0.0216741 -0.0112112 0.0012459 -0.0183882 -0.0103111 0.00178173 
-0.0123546 -0.0105035 0.00196903 -0.011218 -0.0103639 0.00186497 -0.0100697 -0.0101556 0.00185109 
0.00596189 -0.0123845 0.000448295 0.00768855 -0.0122392 0.00248547 0.00945049 -0.0130325 0.00178044 
0.011574 -0.0115673 0.00195225 0.0126941 -0.0112848 0.00196117 0.0137711 -0.011347 0.00165446 
0.015163 -0.0111175 0.00126947 -0.022266 -0.0105194 0.0018864 -0.0214494 -0.00968823 0.00115569 
-0.0198962 -0.00995135 0.00127524 -0.0173024 -0.0096318 0.00191789 -0.0165872 -0.0106143 0.00217682 
-0.0133666 -0.010085 0.00202166 0.000903707 -0.0119929 0.00211192 0.00262684 -0.0118031 0.00155955 
0.00427261 -0.0114247 0.00190271 0.00697174 -0.0118937 0.00138947 0.00855332 -0.0114697 0.00206161 
0.0157867 -0.0101283 0.00169675 -0.0269566 -0.00913227 0.00143877 -0.0251626 -0.00998633 0.0017422 
-0.0226281 -0.00940009 0.00163651 -0.0161491 -0.00949126 0.00170881 -0.0151245 -0.010017 0.00113104 
-0.0127788 -0.00908379 0.00181612 -0.0116835 -0.00931073 0.00183483 -0.00880833 -0.00959935 0.00108954 
-0.00729206 -0.00979324 0.00172996 -0.00246147 -0.0102695 0.000506659 -0.000356383 -0.0105538 0.00196756 
0.00086608 -0.0112523 0.00298192 0.00174339 -0.010627 0.0019802 0.00427718 -0.010339 0.00153633 
0.0105804 -0.010693 0.00143262 0.0121056 -0.0101267 0.0017466 0.014483 -0.0102647 0.00176337 
0.0169314 -0.0103318 0.00102967 0.0194143 -0.00992896 0.00113506 -0.0234194 -0.00853015 0.00195476 
-0.0219091 -0.00854475 0.00188479 -0.0200071 -0.00865516 0.00163922 -0.0136587 -0.00818614 0.00139405 
-0.0124493 -0.00815543 0.00128199 -0.0109943 -0.00872914 0.00113078 -0.0100968 -0.00853539 0.00210212 
-0.00147005 -0.0104194 0.00152126 0.00486132 -0.00931128 0.0014756 0.00758069 -0.010233 0.00194214 
0.00888002 -0.0101956 0.00199371 0.010546 -0.009007 0.00161026 0.0130513 -0.0093699 0.00175763 
-0.0280971 -0.00842521 0.00152042 -0.0254942 -0.00924895 0.00107429 -0.0176471 -0.00847871 0.00183225 
-0.0159563 -0.00834532 0.00170337 -0.00688662 -0.00860239 0.00131541 -0.00519215 -0.00929375 0.00111785 
-0.000289401 -0.00941366 0.00155546 0.000655135 -0.0100119 0.00212234 0.00138223 -0.00905166 0.00172668 
0.0114166 -0.00817032 0.00143944 0.014269 -0.00885621 0.00171801 0.0164724 -0.00823801 0.00197187 
0.0179895 -0.00816846 0.00184899 -0.0276639 -0.00723864 0.00168402 -0.0259962 -0.00655079 0.00132182 
-0.0225888 -0.00758933 0.00199527 -0.0203039 -0.00638015 0.00208588 -0.0183513 -0.00748852 0.00201335 
-0.0173859 -0.00695967 0.00183118 -0.0150202 -0.0074506 0.00150884 -0.0136883 -0.00673157 0.00130136 
-0.0118352 -0.00655446 0.000965565 -0.00971345 -0.0074416 0.00162844 -0.00406316 -0.00819777 0.00163995 
-0.00146199 -0.00795822 0.00151403 0.00187025 -0.00745113 0.00193697 0.00632101 -0.00828373 0.000574921 
0.0103132 -0.00780746 0.00147397 0.0131705 -0.00810705 0.0018414 0.0191123 -0.00790107 0.00146545 
0.0223005 -0.00785956 0.00201478 -0.0269764 -0.00554007 0.00186752 -0.0258766 -0.00441873 0.000908223 
-0.0232633 -0.00618147 0.00144353 -0.0215902 -0.00686107 0.00207456 -0.018476 -0.00610434 0.00213121 
-0.0161859 -0.00602356 0.00207313 -0.00582192 -0.00711672 0.00100502 0.000798612 -0.00658872 0.00162604 
0.00309415 -0.00751725 0.00114958 0.00656626 -0.00771945 0.00193769 0.00960529 -0.00688788 0.00122289 
0.0114055 -0.00701402 0.00171088 0.0140902 -0.00719293 0.00216095 0.0161241 -0.0071485 0.00201892 
0.0170859 -0.00662532 0.00162843 0.0192684 -0.00639326 0.00183243 0.0235019 -0.00656494 0.0019697 
-0.0209274 -0.00550269 0.0018158 -0.0151429 -0.00568655 0.00180004 -0.0107493 -0.00615379 0.00095543 
-0.00335463 -0.00679407 0.00140478 -0.00272061 -0.00577004 0.00171976 -0.000705813 -0.00665169 0.00166907 
0.000119753 -0.00565588 0.00154703 0.0018125 -0.00632544 0.00144701 0.00289775 -0.00631494 0.00120206 
0.00607635 -0.0056088 0.00148031 0.01574 -0.005948 0.00167742 0.0168713 -0.00544194 0.00232309 
0.0205095 -0.00648916 0.00163361 0.0214952 -0.00693492 0.0017657 0.0223596 -0.0061998 0.00153745 
-0.0279392 -0.00483188 0.00187875 -0.0231807 -0.00490766 0.00162917 -0.0196183 -0.00531144 0.00135984 
-0.0184548 -0.00436745 0.00151738 -0.0172753 -0.00473541 0.00123011 -0.0162829 -0.00482161 0.0017897 
-0.0145871 -0.00462028 0.00164222 -0.00831993 -0.00589353 0.00175392 0.00124647 -0.00516133 0.0015393 
0.00756066 -0.00504189 0.00105948 0.0128738 -0.00536405 0.00187166 0.0180441 -0.0058982 0.00181229 
-0.0258326 -0.00361525 0.00186821 -0.0246259 -0.00342014 0.00147077 -0.0219689 -0.00337972 0.000817312 
-0.0156911 -0.00413116 0.00115169 -0.00752167 -0.00478905 0.00180923 -0.00368239 -0.00492799 0.00209751 
-0.00216492 -0.00454119 0.00196418 -0.00066439 -0.00419459 0.00131957 0.000301399 -0.00460078 0.00184386 
0.00246678 -0.0053718 0.00149117 0.00476408 -0.00549722 0.00141113 0.00853076 -0.00403924 0.00122922 
0.0133785 -0.00403467 0.00122466 0.0157212 -0.00490075 0.00200404 0.0180525 -0.00464162 0.00147429 
0.0198199 -0.00415407 0.00140096 0.0208306 -0.00473151 0.00192977 0.0217453 -0.00503733 0.00138478 
0.0244788 -0.00508916 0.00131625 0.0290955 -0.00446611 0.001286 -0.0290719 -0.00336075 0.00155664 
-0.0285672 -0.00266212 0.000643745 -0.0239627 -0.00250747 0.00141322 -0.00866236 -0.00382356 0.00154601 
[...]
POINT_DATA 17850
FIELD FieldData 6
id 1 17850 int
9490 13340 2690 15891 7433 11822 10694 7189 12004 
8536 12559 1690 10245 6018 5500 991 7353 5519 
12332 3551 13176 6497 13895 11127 12461 12208 1321 
16103 11825 15661 15301 10744 4273 9820 12622 10714 
3104 10676 7342 7715 15008 12846 3137 13924 14868 
10376 1890 12807 14057 16801 6804 11201 8600 10614 
10788 3884 2946 16266 15365 3982 17178 15824 8580 
2202 3309 12706 16240 5464 17250 13997 9187 14957 
9040 11476 7904 162 10670 12556 17492 16893 17045 
10389 14566 9323 16871 14232 16556 14940 6587 1408 
12234 2537 16740 10138 17323 16573 4767 8134 1277 
17248 7866 11851 10464 14525 14658 5824 8102 13463 
1076 3786 15602 7733 6138 11812 3561 2861 6424 
7533 10834 2775 6264 3810 9467 4491 9649 5026 
4109 17614 2713 5847 16367 13326 16438 6789 17206 
5645 11879 8011 12709 14971 4226 10574 1504 11673 
5961 16379 13891 5238 6217 5186 4671 3643 10507 
8004 13335 10151 6840 481 16294 5161 2836 14113 
14457 9761 17224 11208 11951 5578 8651 11589 15760 
7268 16035 12130 4965 17635 12545 14794 13207 16255 
12179 6320 2524 17313 3226 17577 823 17555 2490 
8876 106 13171 1129 2475 14976 17606 6409 7872 
1203 17640 2259 15980 418 7363 4973 12042 13755 
15818 13172 7028 16118 16649 5864 8546 10723 4715 
1563 11147 12242 9485 2171 17683 1138 8859 4972 
16226 9405 10211 3006 8717 7995 9370 10487 11726 
14079 12009 15334 15466 234 6065 6990 4665 13713 
11264 9142 16496 11011 12625 2762 3940 6094 6728 
7301 4939 14926 12377 14397 8232 9822 7485 12244 
7003 12040 15433 4449 17027 3619 890 497 14708 
12373 16739 12777 11896 14214 8503 11936 8783 9626 
4818 5749 2337 2855 10263 8603 16974 12285 385 
15992 5474 14412 7612 2461 5226 12047 6714 5754 
16196 16495 5705 4309 9836 5988 13504 3683 2443 
10096 10104 589 11468 11732 14862 553 17105 1948 
10752 1449 11742 3276 4856 4864 10412 8226 12453 
12743 14548 11617 12371 1244 13267 2039 16508 1133 
6420 14453 4582 17359 3922 15811 4519 1393 13148 
16741 8843 12188 11099 1081 11738 7761 9074 11819 
12043 9233 4923 14398 15572 9225 122 16753 1719 
3827 14473 15864 7345 11216 11906 4018 10553 11863 
11946 7347 14236 17194 4986 17816 260 4407 17015 
11649 4805 3776 1074 7716 10745 14060 12791 9026 
1588 9037 340 16462 14508 5537 9139 4680 8470 
16962 7487 603 1795 14162 8023 10652 6136 14752 
2197 13152 14733 14087 11618 17662 15322 10846 17844 
3015 10073 2230 17246 13322 1036 15154 12866 16559 
11184 16213 7574 1494 2985 10527 979 2303 12003 
8475 15413 9507 12477 17382 6582 12635 8153 10662 
11346 8006 15013 6786 16818 17237 16441 6057 6004 
13502 12240 408 9348 15318 5497 11548 952 17609 
141 14963 10525 11487 14186 10066 8412 17243 6932 
809 3633 11163 17787 690 10341 6875 16716 11876 
10419 13605 17570 100 16327 7939 7080 11117 12953 
4254 7677 5473 6238 14879 2477 17093 3402 16403 
3790 16548 11884 2725 17731 6246 11670 10725 9647 
11419 17601 10243 17223 6016 10060 5174 7601 13130 
15819 10378 14054 17498 4111 8938 13911 13310 8542 
16138 5977 7740 16905 4762 9325 16998 12708 8918 
17704 6274 12251 2013 10297 8278 5283 16276 4041 
8955 1637 17254 1426 4364 15288 12507 9052 11811 
13347 7041 17827 15453 6812 1856 16160 1037 13592 
9584 3666 17444 9557 6091 15368 1387 8120 13761 
7440 4906 8087 15991 16251 3652 15147 8182 10508 
16987 14888 4140 15392 2325 15237 17189 13651 16119 
7178 17199 10776 30 13073 4138 16115 13290 15295 
10002 2792 4396 10112 5535 4030 13451 4840 9020 
15801 6793 15618 17801 9400 2185 9918 5999 8993 
1826 4796 8610 2435 12966 1652 13525 7833 11680 
5066 598 16725 4269 3766 15214 5122 11443 8322 
268 12069 3923 13405 6902 7327 10537 6791 14195 
5989 10799 3078 10312 16113 7355 11710 7720 4134 
10082 5831 12600 11412 15127 7902 16698 17034 13023 
12748 6960 14652 4994 12751 6121 9268 12730 2763 
4918 9416 10143 7785 4531 2291 13609 12021 17099 
14371 12161 2947 2469 8806 1825 14874 3977 16630 
16353 12901 10657 14474 2158 8338 4328 9919 13300 
11713 8288 4908 15566 14038 4634 9241 1930 13969 
7526 14353 2927 2609 12540 5130 2644 10189 7101 
16936 8623 9591 7290 14727 10373 15999 10928 5779 
11155 16652 14105 2983 15067 5404 13669 16928 7043 
15954 16335 11644 11180 12232 203 6360 1846 3176 
2753 2135 2066 4506 8050 13170 7576 16099 9609 
10680 13052 3267 15831 6152 3459 15814 10964 4647 
1919 6956 13987 3275 4486 14887 1827 12492 5654 
4983 11248 2816 10552 5004 10299 9264 14260 5245 
10521 17576 16806 3928 11322 7707 12081 2491 17068 
15006 8745 5020 2331 9566 3126 7783 4814 398 
9936 7135 11383 888 17362 2238 1286 15532 14137 
12712 4616 3188 3675 4567 847 12330 2067 10451 
2937 8823 10900 9915 8041 2559 9601 10804 1096 
13101 17305 13708 3195 17642 6253 7499 8650 7030 
5755 16227 6618 9057 16710 4545 273 14401 10472 
4306 12024 16550 15157 5427 6631 5680 6905 2277 
7687 12294 2878 213 1585 2989 3689 11073 916 
16615 10292 12380 5684 9798 4094 14421 2076 1906 
13002 3036 4741 10206 2231 2589 3132 9127 949 
3530 2697 908 6738 15776 12231 14951 12249 289 
2913 5719 1788 12092 1716 16038 9072 5594 8304 
4072 14520 10181 10710 10544 17659 3404 8562 5668 
5603 745 8299 1312 5720 15859 15103 5198 17795 
517 6760 6954 13045 1844 5407 5741 11204 4151 
2615 962 10660 16468 12147 5986 10032 6741 8028 
11402 10511 8615 211 5170 17370 3363 1782 16434 
625 9236 15796 13867 14357 6640 3099 15386 1355 
5274 4904 12481 3151 12940 11440 4993 6466 14943 
9658 16923 1140 9975 14982 11516 15898 11634 11592 
9076 9876 5492 10888 4659 5855 13161 16234 17240 
14461 1413 10718 13275 6130 8892 10061 12851 15430 
8721 17565 16979 4079 4752 16560 12035 4381 15112 
9652 8206 5499 7945 15359 6566 15206 1478 4327 
539 13994 1457 12799 12280 942 1409 15390 12945 
11025 16193 14427 8488 2445 16951 12378 7893 5564 
11411 10079 15007 14789 6261 3027 11188 14399 14683 
2712 12502 10767 14163 13871 11853 14550 9661 17137 
6843 14471 15358 8105 17013 16057 12688 3102 5437 
11324 2598 9013 9777 10867 3458 14150 16933 16629 
6928 777 3467 8378 16279 8222 10456 226 14625 
7975 15297 6044 15770 12580 9045 4792 17031 9801 
12918 13419 38 11972 2049 8061 16513 15438 17113 
12821 14351 16860 3416 4725 10423 8064 10673 13182 
16409 14762 10463 15590 435 6571 11988 891 14016 
11600 17104 4038 14596 420 5574 2382 15643 5503 
17222 4648 12747 2383 4748 13863 15198 4854 16599 
836 9446 9182 13353 4421 594 2787 11695 11669 
12833 1435 15192 3718 16996 17211 8795 3919 16704 
14848 7011 537 887 15465 13958 8381 17338 15670 
2077 6020 926 6271 8850 12946 8581 17811 10256 
10401 10370 3514 3783 8701 6511 9149 9125 16707 
4913 8333 4773 9426 12282 14203 17848 9642 16278 
16955 16293 6052 12472 9756 16639 8419 4588 5964 
5441 10876 17320 8878 14120 12802 3352 11074 14838 
11233 8515 4927 14895 17484 10305 13217 15915 1888 
17401 13498 12857 3640 11707 2215 6162 4302 10930 
8728 12056 9200 9133 9806 14778 4707 10448 5256 
16481 17770 2275 10467 6832 16752 17796 15592 1764 
17077 13773 11652 637 16301 9281 1049 5526 9148 
2862 17084 3511 8740 17094 9379 12594 16726 2600 
8436 16011 4416 11905 1331 17221 7936 4040 11838 
4642 7456 10965 8567 17440 13728 6609 9778 16117 
14664 15307 13709 14766 9063 16815 12369 1853 7096 
9895 9521 883 3778 13626 13166 7319 3743 3704 
12356 11856 8492 11294 13616 723 14023 11056 8261 
6258 3431 12152 11882 12212 2362 5804 13889 14906 
207 4006 5137 5352 10985 169 5145 15164 362 
16839 14234 7580 13359 14008 10966 12667 9313 11639 
4849 10859 16770 4577 9538 6705 17170 15403 2376 
15677 2974 9576 17095 16168 10706 17621 5967 12548 
4086 4287 2839 3178 4676 6153 14092 11160 12885 
15111 12498 11280 2870 11230 5789 9511 276 3260 
15728 14949 15173 9893 3878 2381 14481 914 16389 
16832 2955 14941 7081 16376 342 10976 17752 11629 
12057 546 3082 13178 16063 8913 16494 3128 2311 
17042 5119 5485 7758 15299 16581 3846 7890 2619 
10486 1773 6317 4888 17473 2772 5268 7899 2896 
15986 11840 7645 11266 7799 2453 114 11367 1789 
8785 8826 11776 13004 17269 1239 17434 2779 14934 
14380 10348 9366 3354 6547 16762 2521 14244 15436 
17023 7952 2758 2051 17568 3888 16308 16201 8015 
15755 14709 8527 1097 10395 3356 13274 7697 2540 
4829 13373 4842 16101 11288 412 7105 7066 11112 
15080 15116 17340 13479 3938 611 15614 12849 1775 
16516 14014 14299 11513 11142 14981 9985 7693 16005 
3557 7741 15431 16724 13693 11430 2085 13144 13038 
9177 4892 7680 1869 12664 8431 17511 3066 13220 
5865 13509 12993 13664 17418 4478 12746 17680 4162 
14165 13185 17050 11453 1421 12423 17691 14812 7471 
15934 7821 11643 10712 16020 4150 11868 13003 7800 
14470 13737 14731 16863 7793 13691 8622 12538 17319 
4607 9500 482 11577 12268 13232 1560 16891 6870 
17477 14376 5709 17721 7149 2254 2389 13342 1263 
14792 221 7636 7205 15648 17687 15217 15146 14440 
10384 11458 12060 1199 8968 10208 14161 1476 10219 
1867 15545 16784 13484 10215 8543 12142 2353 9605 
17454 9028 2643 5012 9059 13690 7871 12084 15784 
8002 9509 14892 17300 16261 15266 11023 13522 1029 
15366 14521 10278 14395 13850 1715 1108 17033 14653 
8269 11103 1857 11757 16989 8424 11714 12888 1369 
6855 13063 10506 17336 9535 16275 1983 10770 8343 
11837 10627 17672 14688 15779 13372 6157 15361 17585 
9955 16854 11850 5384 16692 16549 9715 11780 5035 
16499 7750 11931 8636 7237 6938 12701 9588 1422 
1568 12813 7123 15121 310 3185 10590 726 15327 
1323 3506 1154 9255 436 8734 15651 1100 11109 
13831 15905 4827 3053 1550 1241 12948 14533 11832 
10421 11471 157 16476 15014 4016 9143 7637 3184 
11203 17605 16983 6133 578 8359 15387 3210 15753 
15045 12803 9 616 17526 16766 15837 12100 12783 
494 1629 2369 8926 16269 14452 3916 12956 3613 
10476 15604 13296 1609 9319 3218 10145 17594 5777 
13520 6752 5512 119 1406 8144 13768 4349 10166 
636 223 6500 10585 5614 7006 3784 14428 16942 
3890 528 2080 16838 15921 5135 4719 10836 11727 
5213 6679 5416 10274 15341 17649 8169 2727 1166 
5710 2525 13025 1067 2142 1754 7064 7509 3654 
32 6414 15743 4217 7483 2959 417 17549 10554 
5054 6668 11449 12325 6254 2860 4797 5369 16055 
15135 3697 10869 4120 313 4832 348 14640 17436 
7760 2932 5098 3199 2629 3808 11347 2814 9243 
7611 14677 8235 10938 3670 5217 15787 4452 17772 
15741 13253 9053 4579 3365 8696 7391 5264 2081 
15498 9159 799 5189 5467 14844 4043 3360 13803 
8768 9042 15328 7111 4173 2121 9487 6067 7325 
15119 2655 9165 787 17782 17460 9691 11010 2314 
8748 6442 524 16880 11907 9982 16677 10417 11584 
11716 1194 13849 15901 4591 2015 4144 1751 8463 
15878 14637 1800 8921 6614 3364 12198 11043 5236 
7014 13965 13459 15928 10428 7743 17318 13022 1877 
7004 14403 12256 5079 8794 16580 146 13324 14281 
10658 5224 10446 15836 473 17398 10308 3544 6886 
3369 8363 16731 12844 17490 6747 14134 6519 457 
4793 17317 5377 14100 5216 2328 6288 13294 1938 
558 14032 9224 15395 7181 3597 9800 12843 9987 
15022 15484 13673 15495 6967 8882 10319 16295 605 
1677 15033 2397 1804 9720 12264 1122 9273 9852 
761 13488 11130 2327 8796 6386 5936 5276 14737 
11084 13416 12136 14133 10669 6224 9767 10697 8164 
9957 5379 174 14933 4470 14156 10404 7197 13367 
1043 16509 16917 749 6927 8969 10572 7463 2707 
13795 6012 11529 13180 7670 9091 11301 5604 5768 
1044 15311 14990 16442 13780 15669 14071 14987 11218 
5756 9331 3813 16729 7429 12454 4666 10452 10501 
15625 15011 15782 4146 9999 8797 12771 13769 11423 
15343 4878 4538 13156 13302 11561 14020 5463 7765 
6144 15325 13473 7788 5676 5127 13777 15953 13842 
15391 15247 17379 14849 2446 12073 16232 9771 10414 
9665 14662 13252 6869 13566 13467 13640 6323 8248 
8971 17053 9921 14564 12942 14780 15929 7403 6530 
10998 13923 15092 10418 6357 6277 5522 13802 1025 
10610 16765 7314 7908 14464 630 11116 10353 6700 
5540 10990 5139 16357 12444 4596 15972 7520 4338 
6080 10805 10737 8282 16664 3463 6396 5851 426 
14419 14278 1990 14615 143 17226 3313 15470 8044 
17603 416 7958 9060 11745 15961 5925 10583 7332 
15189 873 10 7133 9737 1708 2428 16211 15160 
10265 14022 1240 5470 13054 839 9700 4661 3108 
1380 5612 17786 6070 12025 10090 3505 5415 6310 
460 721 6915 10103 10604 753 4886 11736 40 
5845 16013 16259 12239 3460 10773 8846 1617 8657 
3423 12165 5814 6941 6675 10468 3407 13933 4102 
1459 13219 17267 7491 7502 11861 13988 9034 11185 
8199 11518 1898 7891 1528 10760 1063 2280 5544 
14194 10539 9038 16224 14149 12386 9317 1953 12860 
755 17686 6797 9002 7797 10771 3353 5320 17507 
8805 14556 8318 15555 10483 4670 1048 1995 5317 
812 17582 647 11336 4857 5983 1169 12525 2984 
5440 7566 8428 11568 5239 789 2465 5932 16043 
1940 16019 6965 13475 12460 16265 14624 6539 16086 
3278 646 6501 2424 15719 9623 13753 10837 5556 
11045 16421 11061 1106 5454 3409 9687 8179 6740 
12270 3717 345 17438 6775 15459 4895 3839 10093 
5950 6685 16199 10158 17723 16616 16822 11194 8402 
17038 2587 14507 7173 9717 3146 10331 15973 12764 
16129 2255 5421 15766 3700 11549 3984 3277 4493 
15506 11911 2292 5919 13847 13 7036 675 5453 
9731 11390 15326 6806 15411 277 2728 1897 5589 
15848 2987 8130 16477 1204 5406 12450 13329 5945 
9799 2719 17632 10306 8013 15377 7934 7221 16826 
15637 3726 17773 8252 5727 1071 17187 8839 9388 
2298 11729 17705 2963 3231 7129 12795 14809 14335 
1006 3647 16828 1110 948 11580 5963 6979 4258 
1226 2138 13937 14655 10703 3565 13766 11787 6494 
910 13046 15826 11478 228 14952 16465 16464 16723 
10091 2143 1303 16776 5182 9305 2452 6831 14418 
7492 9804 9976 1377 1404 12365 7790 13095 12711 
13890 15636 1722 1142 5937 17381 7170 14247 12935 
16529 5321 13907 7358 6232 7570 11531 7525 5391 
2260 14486 14891 12899 11520 1545 13420 17593 1515 
9011 16048 11657 7323 13272 14249 7573 11183 16202 
1212 17413 4739 17006 9594 9859 15248 11192 13929 
7285 5951 14311 13957 8531 7009 15234 1172 15842 
11661 10609 12269 4195 11913 17617 4475 16040 6345 
11583 17102 10137 13681 15446 2342 13192 9126 6342 
5548 10329 9796 2188 2800 14983 12473 7326 5165 
5886 7669 1112 8177 13317 17727 16660 15422 10792 
2349 12174 6167 5180 7486 11999 15781 15513 6285 
8281 3466 8534 13331 3685 16350 11436 16920 14083 
13030 11049 11883 15523 1620 7390 8113 9204 5430 
5438 4770 16841 8633 7577 7642 13124 10605 16375 
413 13298 9259 7154 875 1848 17480 8856 2433 
15042 13905 2756 7652 12076 14675 519 4216 14691 
6564 4984 9701 12569 12522 2646 4250 15149 11492 
7713 7337 2971 9035 17262 10440 10775 16074 3550 
6093 13964 17449 9590 1536 2268 17663 2833 7926 
8800 6605 5759 16173 4418 2032 12666 12883 17807 
746 13506 13553 12741 17076 11691 16147 16197 12105 
4010 4003 16820 14480 5188 12693 15383 14830 12291 
4128 2220 7654 15410 12314 13163 14095 17620 509 
11161 16003 15546 3383 17758 3650 12626 619 9714 
8408 11086 17689 10347 15166 1644 11668 11895 5906 
11293 16358 3225 9498 1674 8804 13452 4953 10937 
16029 13391 14148 15624 17410 1145 10907 9497 10810 
1882 3679 14225 14858 3373 9996 6731 11894 9711 
11209 14448 5596 5252 4264 4110 13215 2440 4321 
15017 14961 12316 6813 5724 14041 15647 2821 15078 
1972 7161 2557 5689 14396 17259 9162 14093 2593 
17416 11826 16624 12324 9471 16971 16922 859 1474 
14091 4360 15219 9206 16080 13237 12911 16315 5334 
3607 10360 4415 5918 14773 17818 2203 8078 13401 
15746 3698 15284 1875 12884 15914 12546 4176 8347 
2904 1453 3017 13153 16061 15129 17769 7626 17777 
11939 11307 7531 16256 4941 7219 4132 369 17485 
2115 12805 12864 14678 6947 7909 17026 988 17506 
649 12494 1988 16967 2581 14468 9596 10094 781 
14 13379 6394 11551 13047 16128 15678 5802 12775 
17453 4014 3703 3549 3912 5828 5953 12782 12375 
6654 3845 11886 6259 2877 8601 8137 8863 11739 
7930 9953 12552 16246 3282 3371 6335 4574 6454 
9234 10065 2361 16865 14742 6940 16985 9622 4954 
15382 5591 4100 4561 8089 14170 5560 12675 1632 
801 14638 6513 15633 8083 3287 9398 10116 13608 
10716 7067 4789 568 337 12062 729 13740 17681 
6823 2586 14465 7953 14904 4055 12134 13413 180 
1902 16012 400 1595 583 2801 14621 14256 4946 
16543 5592 9362 2210 11785 6558 10949 6347 4143 
238 6835 15380 16107 13662 12865 4749 318 6037 
6748 8163 13460 2117 14587 11420 2551 7160 10196 
14803 7538 14151 13145 8838 13492 5878 6642 8056 
3665 756 14227 6089 17041 11938 16501 7073 8350 
7897 3167 3217 4733 4147 5277 13982 486 8323 
12263 5885 2823 7329 3850 4203 2304 730 2798 
2393 9107 1569 3274 17136 715 15169 6516 909 
6713 7695 12247 3096 16010 262 9760 5123 6280 
6624 12882 5818 9298 14700 13012 15705 9299 17054 
1658 1160 3879 7529 7813 2919 9287 10624 11291 
4555 2196 5207 9434 17181 2866 1282 4119 4996 
11241 2172 6090 8485 8024 13390 4289 15244 4899 
14857 16136 7835 2372 10868 6262 1304 4837 1417 
14723 3695 3843 8239 14582 9524 5048 5202 5332 
1942 11570 14903 14642 7705 16271 17357 1056 13409 
1103 110 5031 9328 11080 1333 9740 8584 1057 
11698 13973 16309 6521 2851 4438 11249 1673 2009 
5092 2954 7629 9725 13978 10582 16557 1022 5235 
13077 16534 1606 10097 8300 16957 10790 14000 7146 
1970 10435 16546 1648 4672 6800 7095 1489 17799 
672 8585 123 10692 6735 17654 9056 3579 9146 
5826 13990 7132 15175 8541 16223 656 11893 12832 
8371 623 2214 6912 17478 11008 14661 7822 9875 
1731 4780 3692 14746 7582 15919 15300 16134 13792 
8194 4690 10200 1462 9791 14898 2651 17177 15434 
12633 15930 3744 7862 1828 2811 16114 5558 13661 
166 12676 16976 11297 20 3876 13487 7150 10645 
11343 15584 14673 9882 12558 195 14433 14836 14860 
7989 11014 10416 1651 6589 16347 9055 15543 515 
11068 3344 10951 5891 12411 2760 17850 16025 14811 
10877 7180 175 10567 5954 12001 1534 1461 2657 
15077 16342 16328 12902 10018 16525 8982 17148 6971 
12770 9110 1190 10169 10651 2221 16381 1069 4035 
1891 8404 990 3396 6604 2613 16422 8664 9637 
15718 3397 10095 17794 2063 14799 13087 13039 16157 
14852 165 13749 8191 14255 7477 16457 14920 16594 
11238 16009 7856 10795 7534 8715 595 10987 12665 
7272 2048 14560 10355 5542 5278 5695 12338 8445 
9151 11065 16676 1870 2091 14635 12904 16960 12204 
1276 5272 16042 7555 1197 15246 7112 1766 8891 
17762 4423 3452 17131 11413 621 8342 14346 11329 
7087 7880 9963 17701 13377 12361 2024 17152 6163 
4629 15414 13523 933 14942 13666 2150 10729 4795 
2914 5725 6006 2155 2488 14954 17608 6966 13312 
16888 7522 6314 10919 13852 3065 9286 11603 12543 
14757 9603 10549 3429 4133 2310 6351 8855 1281 
4936 2037 3645 11997 11718 12753 12190 2853 4320 
13005 11242 16079 2134 7596 12455 2920 11725 14340 
8097 12010 1326 11456 15250 8755 8612 15490 16346 
13418 10743 6205 7273 7402 1778 16484 12638 1915 
3118 4077 6472 3091 2156 5443 10911 14072 16188 
339 16981 863 17057 6244 13110 9984 16258 16530 
14614 11975 9216 252 1287 4454 5303 5615 11501 
3950 3620 7090 6770 15589 1539 14764 5646 11035 
15715 17182 16485 12642 4098 11594 6267 16249 8454 
6279 3446 5700 4612 14589 819 3415 7061 15530 
17476 2059 3952 10232 15029 9703 6329 8511 11428 
7984 3525 6773 12109 8195 16032 13174 5530 12964 
16311 856 5136 9845 16642 16273 13702 17389 8502 
10864 1213 10798 5222 12646 16461 4556 4611 14332 
4420 12497 2612 14460 3029 12235 16449 10289 15481 
15242 9942 290 14124 7309 1472 14523 8215 7938 
4456 7820 8401 3447 17843 7480 6807 11186 7037 
11527 2340 12284 8091 963 11406 3236 17515 3298 
16850 10356 9722 7476 5176 2568 10500 1471 15722 
13392 3716 373 4379 10612 16532 17785 6300 5042 
13683 10244 17734 3599 9619 11268 11760 13705 10667 
11094 8184 1779 16146 17625 17487 562 12097 14485 
8961 15658 11953 8916 13441 11000 6506 3342 10311 
5702 6563 6732 17768 16802 6469 12157 6598 12420 
4266 16430 3462 194 17155 4201 6122 9483 11212 
3738 9338 1235 15197 15038 5898 5495 9743 14034 
1042 5584 1023 11211 4122 5531 14970 11260 17793 
12366 10253 11734 15791 11865 16460 3889 14786 16363 
489 4959 9838 16026 1583 3361 10746 9437 5624 
15671 13256 15369 15844 12719 7168 11626 16175 3079 
13653 3380 13209 7691 2419 2922 2390 16831 16352 
8674 4463 10648 13837 462 11482 16813 4186 16270 
892 259 10721 641 7313 2266 6446 13571 6663 
15046 8743 4978 10576 16757 3538 17331 8205 11960 
6419 14622 16694 11620 15229 3558 11795 880 9080 
8560 3954 9850 13992 5998 12334 8450 8085 10049 
11325 4123 2329 7874 11439 10229 4412 4916 7069 
6542 6082 15769 5655 17231 7755 16948 3817 16919 
6824 6260 13654 10519 12659 2498 344 11024 9613 