# vtk DataFile Version 5.1
Generated by LIGGGHTS
ASCII
DATASET POLYDATA
POINTS 17850 float
-0.00500662 -0.0286017 0.000892703 -0.00868219 -0.0280319 0.000772362 -0.00292335 -0.0280715 0.000809893 
0.0043093 -0.0285586 0.000880426 -0.00394291 -0.0270282 0.000960613 -0.0123024 -0.0264695 0.000804655 
-0.0132252 -0.0256252 0.000794759 -0.0096647 -0.0247188 0.000738477 -0.0149371 -0.0245032 0.000845406 
-0.00871558 -0.0234985 0.00104136 -0.00996433 -0.0223637 0.000800438 -0.00143701 -0.0217158 0.00103093 
0.00317314 -0.0181205 0.000918279 -0.00807386 -0.0158807 0.000802584 -0.00274909 -0.0147019 0.000806207 
-0.00189713 -0.013639 0.000780224 -0.00619498 -0.0118058 0.000739944 0.0253269 -0.0121728 0.000765689 
0.0235796 -0.0117454 0.000900479 0.0266665 -0.0119882 0.000728473 -0.00779001 -0.0105204 0.00070948 
0.0195703 -0.0107962 0.00103421 0.0273068 -0.0108756 0.000765914 -0.00479394 -0.0102656 0.000727435 
0.00343878 -0.0100536 0.00117786 0.0220942 -0.010632 0.000924686 0.0237193 -0.00999932 0.000984763 
0.0263838 -0.0103967 0.000730861 0.0183649 -0.00816536 0.000753644 0.0238349 -0.00711982 0.000910321 
0.0196898 -0.00444058 0.000835354 -0.00956477 -0.000554514 0.00114222 0.0240876 0.000825276 0.000945383 
0.0229624 0.00151754 0.000761641 -0.0106302 0.00162373 0.00119837 0.0248874 0.00264651 0.000892768 
-0.00544688 0.00242535 0.000986133 0.0186984 0.00344435 0.000835836 0.0202432 0.00322096 0.000752096 
-0.006344 0.00427993 0.000813018 0.0218257 0.00484529 0.000786916 0.0213409 0.00742183 0.000856048 
-0.00174549 0.00745052 0.00136859 0.00832563 0.0100541 0.00103162 0.00595706 0.0106871 0.00100686 
0.0253411 0.0106608 0.000766919 0.00210793 0.0130482 0.00115412 0.0234312 0.012408 0.000718787 
0.00112487 0.0140742 0.00133865 0.00802144 0.0152762 0.000835867 0.0201922 0.0153403 0.000871488 
0.0256715 0.0142345 0.000812847 -0.00121666 0.0150462 0.000760852 0.0228197 0.0147628 0.000780576 
0.0245193 0.0146403 0.000766239 0.00709588 0.0165972 0.000736867 0.00587847 0.0179547 0.000759694 
-8.88004e-05 0.0189817 0.000803436 0.00483935 0.0182026 0.000709576 0.00773521 0.0198581 0.000787177 
0.0136096 0.0188564 0.000937658 0.0118438 0.0201106 0.000739139 -0.0141566 0.0207345 0.00106978 
-0.0100672 0.0220482 0.000745036 0.0106331 0.0230809 0.000744374 0.0172094 0.0225743 0.00084891 
0.00173231 0.0238729 0.000746257 0.00430694 0.0248693 0.00104631 0.0113233 0.0240513 0.000862674 
0.0151452 0.0234476 0.000796245 -0.0148351 0.0232621 0.000948484 0.0100819 0.0246106 0.000768456 
0.0118044 0.0250904 0.000874673 -0.0156069 0.0246319 0.00112218 0.0103527 0.0264605 0.000763469 
0.0128004 0.0264256 0.000769375 -0.0107301 0.026144 0.000919801 0.0116014 0.0266357 0.000986322 
0.00919564 0.0266438 0.000815337 0.0037966 0.0289689 0.000825583 -0.00316763 -0.0291172 0.000779107 
-0.00149489 -0.029302 0.000788367 -0.00660328 -0.0285013 0.00139958 -0.000721659 -0.0285777 0.000980099 
-0.00728172 -0.0268466 0.000957755 -0.00605087 -0.027512 0.00109947 -0.00205022 -0.0277636 0.00146609 
0.00711231 -0.0278588 0.000976505 0.00737707 -0.0284406 0.00206059 -0.0112035 -0.0267472 0.000773723 
-0.0104539 -0.0272234 0.00152187 -0.00927281 -0.0272963 0.00143369 0.00908003 -0.0272159 0.00123168 
-0.00622184 -0.0265314 0.00173564 -0.00491029 -0.026455 0.00109231 -0.0019719 -0.0263461 0.00102644 
-0.000896155 -0.0262411 0.00128787 0.00792686 -0.0272101 0.0017309 0.0111749 -0.0270183 0.00283809 
-0.0137393 -0.0259433 0.00170135 -0.0122047 -0.0256004 0.00165482 -0.0110538 -0.0256267 0.00117639 
-0.00995974 -0.0260197 0.000813527 -0.00887296 -0.0257644 0.0011801 -0.00701123 -0.0252807 0.00209822 
-0.00395112 -0.0252833 0.00117682 0.000436006 -0.0255681 0.000837069 0.0017317 -0.0260448 0.00106693 
0.00214847 -0.027878 0.00113405 0.00571893 -0.0265595 0.00195895 0.00700278 -0.0259469 0.00151485 
0.00832565 -0.0260315 0.00249107 -0.0138819 -0.0249305 0.001318 -0.0118569 -0.0244977 0.000785023 
-0.00841622 -0.0244626 0.00149635 -0.00674949 -0.0246071 0.00105915 -0.00195737 -0.0252167 0.00105794 
-0.000788483 -0.0245449 0.000804644 0.00432362 -0.0257765 0.000765371 0.00460448 -0.0273203 0.000768898 
0.00880936 -0.0248164 0.00282529 0.0100127 -0.0252986 0.00252578 -0.0164071 -0.0240428 0.00124462 
-0.0126224 -0.0245687 0.00165265 -0.00735269 -0.0242379 0.00207356 -0.00545665 -0.023982 0.00170074 
-0.00240961 -0.0237991 0.00113974 0.00129552 -0.024402 0.00083899 0.00233529 -0.0239797 0.000937789 
0.00552109 -0.0254388 0.00185672 -0.017381 -0.0235613 0.00236951 -0.0164396 -0.0229219 0.00168796 
-0.0145587 -0.023764 0.00150798 -0.013068 -0.0234349 0.00144282 -0.0132602 -0.0242851 0.000767889 
-0.0116357 -0.0232578 0.00076537 -0.0103525 -0.0234145 0.00112061 -0.0080967 -0.0234422 0.00188475 
-0.00169418 -0.0228381 0.00118942 8.05055e-05 -0.0237802 0.00100851 0.00126436 -0.023142 0.000769393 
0.00638239 -0.0239978 0.00258542 0.00921633 -0.0234708 0.00278198 -0.0186428 -0.0225865 0.00243105 
-0.0176524 -0.0221022 0.00237081 -0.0157811 -0.0224535 0.00242795 -0.0141176 -0.0226461 0.00161495 
-0.0123186 -0.0227334 0.00195767 -0.0112066 -0.0225866 0.00207054 -0.00386039 -0.022925 0.00149629 
-0.000409789 -0.02284 0.00138465 0.000725084 -0.0230527 0.00173602 0.00704875 -0.0231889 0.00278892 
-0.0195456 -0.0217506 0.00161895 -0.0163447 -0.0215126 0.00273996 -0.0104105 -0.0218351 0.00260008 
-0.00897768 -0.0226446 0.00198253 -0.0073748 -0.021933 0.00231755 -0.00561847 -0.0219881 0.00159404 
-0.00369432 -0.0217734 0.00155641 0.00181436 -0.0215628 0.000830445 0.0021884 -0.0228406 0.00119193 
0.00455384 -0.0227157 0.000927551 0.00516319 -0.0228416 0.00241605 0.00603639 -0.0228699 0.00304618 
0.00822277 -0.0225989 0.00315685 -0.0203247 -0.0208641 0.00262822 -0.0182056 -0.0210063 0.0021065 
-0.0149458 -0.0216371 0.00271002 -0.0139419 -0.0213039 0.0016621 -0.0130078 -0.0219477 0.00175598 
-0.0119478 -0.0217844 0.00158435 -0.0103426 -0.0211766 0.000883822 -0.00425081 -0.0207729 0.00117976 
9.17573e-05 -0.0208755 0.000771686 0.00363445 -0.0214608 0.000765514 0.00605031 -0.0215864 0.00247484 
0.00677358 -0.0220443 0.00139602 -0.021305 -0.0201809 0.00251448 -0.0171884 -0.0204173 0.00176384 
-0.0157786 -0.0205126 0.00313924 -0.014746 -0.0203071 0.00255673 -0.012727 -0.0207594 0.00200958 
-0.00975463 -0.0209937 0.00265884 -0.00762234 -0.0206555 0.00231017 -0.00307773 -0.020614 0.00146042 
-0.000873455 -0.0205208 0.0012606 0.00272748 -0.0205357 0.00129045 0.00667493 -0.0205391 0.00307617 
0.00957469 -0.0210703 0.00327522 -0.0209784 -0.0191727 0.00288698 -0.019969 -0.0197755 0.0024948 
-0.0183979 -0.0196149 0.00239293 -0.0154399 -0.0193329 0.00327284 -0.0138882 -0.0201607 0.00177637 
-0.0116754 -0.0206895 0.00159412 -0.0100186 -0.01998 0.00220106 -0.00871985 -0.0201024 0.00239949 
-0.00742376 -0.019469 0.00246108 -0.00635965 -0.0201375 0.00206689 -0.00457058 -0.019443 0.00158622 
-0.00334256 -0.0192997 0.00178502 -0.0022754 -0.0192723 0.00144629 -0.00116504 -0.0188695 0.0016291 
-0.000120398 -0.0187684 0.00110266 0.00110503 -0.0202095 0.000887891 0.00335501 -0.0196004 0.00155874 
0.00444345 -0.0195483 0.00136224 0.00575907 -0.0199769 0.00226925 0.00767837 -0.0193463 0.0025691 
-0.0170184 -0.0191344 0.0031092 -0.0142674 -0.0190702 0.00291009 -0.0119018 -0.019164 0.00320318 
-0.0107403 -0.018877 0.00233579 -0.0055064 -0.0185314 0.00189091 -0.00451404 -0.0182117 0.00159115 
0.00182492 -0.0183168 0.000776797 0.00536593 -0.0183432 0.00189173 -0.022839 -0.018185 0.0031974 
-0.0208496 -0.0179187 0.00265947 -0.019203 -0.0185923 0.00251564 -0.00820692 -0.0186541 0.0024536 
-0.00732604 -0.0185574 0.00168212 -0.000784552 -0.0175909 0.00093212 0.000246238 -0.0174659 0.00159068 
0.00138186 -0.0174751 0.00184657 0.00659544 -0.0183935 0.00217215 -0.0236038 -0.0166997 0.00308738 
-0.0214779 -0.0169428 0.00276225 -0.0180606 -0.0175343 0.00288135 -0.0168087 -0.0172903 0.00276154 
-0.014573 -0.0177009 0.00221977 -0.0132509 -0.018324 0.00264835 -0.00999943 -0.0181478 0.00332598 
-0.00634919 -0.0176032 0.00191492 -0.00425147 -0.017127 0.00114746 -0.00236094 -0.0167527 0.00125613 
0.000803377 -0.0157707 0.00140564 0.00190853 -0.016149 0.000758383 0.003325 -0.0168549 0.00138602 
0.00489455 -0.0173949 0.00127766 0.00558432 -0.0170529 0.00228527 0.00997979 -0.0182814 0.00315996 
0.0192574 -0.0169716 0.00381241 -0.0192615 -0.0173994 0.00276075 -0.0178032 -0.0164987 0.00301489 
-0.0154515 -0.0172848 0.00284963 -0.0116852 -0.0166907 0.00272739 -0.00905528 -0.0167872 0.00162031 
-0.00813622 -0.0176408 0.00166256 -0.00678239 -0.0168369 0.0011108 0.00231176 -0.0160251 0.00192537 
0.00357756 -0.015658 0.001523 0.0108214 -0.0163706 0.00246168 0.0141773 -0.016839 0.00301552 
0.0170096 -0.0161738 0.00365376 0.0217048 -0.0150874 0.00328694 0.0244194 -0.0155897 0.00257044 
-0.0216645 -0.0159559 0.00378795 -0.0198191 -0.0169491 0.00390547 -0.0190236 -0.0162059 0.00322141 
-0.012881 -0.0150652 0.00180729 -0.0106339 -0.0163066 0.00218809 -0.00841455 -0.0159035 0.00198725 
-0.0068504 -0.0155321 0.000858445 -0.00517015 -0.0156972 0.00103588 -0.00385205 -0.0154715 0.000790804 
-0.000129402 -0.0156845 0.000760766 0.0028476 -0.0147028 0.00101443 0.0040346 -0.0149658 0.000845349 
0.00555014 -0.014345 0.00114038 0.00618257 -0.0158057 0.00197228 0.00664013 -0.0140316 0.00117422 
0.012164 -0.0159682 0.00255791 0.0131065 -0.015323 0.0031034 0.0172981 -0.0148155 0.00317605 
-0.0248167 -0.015211 0.00272947 -0.0235017 -0.0150373 0.00327327 -0.0203475 -0.015747 0.00331829 
-0.0167285 -0.0156556 0.00290482 -0.0150834 -0.0159864 0.00234824 -0.00991459 -0.0151416 0.00227824 
-0.00603188 -0.0145835 0.00077058 -0.00479284 -0.0140764 0.00107739 -0.00371377 -0.0144927 0.00138809 
0.00151729 -0.0139275 0.00177744 0.0110225 -0.0139421 0.00191893 0.0123647 -0.0143593 0.00288382 
0.0139954 -0.0145525 0.00306112 0.0155458 -0.0138895 0.00238573 0.0180074 -0.0138598 0.00191368 
0.0223517 -0.0141057 0.0032796 0.0244231 -0.0143672 0.00271904 0.0253254 -0.0135558 0.00176634 
[...]
POINT_DATA 17850
FIELD FieldData 6
id 1 17850 int
500 3406 6623 10020 12599 13563 4278 12004 10417 
16677 17248 7299 12558 222 4559 15953 869 12428 
17424 6011 6584 2657 11229 11589 5799 10265 4804 
12594 3683 10653 6941 17568 10965 10412 6245 9838 
11618 1081 11819 13420 6698 7849 13889 9507 10515 
10405 17265 17797 11649 3483 15746 13347 16049 15129 
3324 10527 11727 14587 17590 7722 12647 17199 14401 
16550 12675 17681 16942 4579 9566 8464 8815 4143 
6157 10593 8863 3199 12462 417 2801 15258 3196 
8883 6987 11944 9328 14642 7428 12252 6662 511 
2199 110 17092 3951 7177 15086 16336 16459 4048 
16330 15460 1666 9982 11113 6337 8943 8145 8160 
8400 11022 8765 8790 6741 5986 8028 9840 1852 
7117 9490 8356 265 473 16923 322 15109 6251 
1242 8200 14496 181 2169 11822 6840 15007 9740 
3099 14980 11584 16856 15785 16734 10499 13936 6804 
11411 13895 10714 6640 7246 17080 14565 13516 6241 
10614 11127 12755 13139 2113 8026 3369 13973 10991 
2005 11613 10316 15056 10572 3151 9658 12624 10718 
4438 11249 13156 17745 5978 7013 2659 3424 10670 
7046 823 10435 16468 4672 9232 7432 8300 7034 
10860 16426 15423 2107 14811 16266 13769 6018 7743 
937 1890 3559 10954 8809 1346 8902 12832 12001 
13455 16640 5224 13487 7534 13353 6869 10358 5006 
8512 12491 742 15172 15434 7781 316 4273 5276 
8521 7786 14156 12939 11008 13871 4752 14860 7866 
17492 7630 13275 6998 11518 1435 15543 9320 15858 
558 7236 17794 12851 9323 9467 10697 175 9283 
16662 14737 14943 10282 16391 6343 7612 17735 15311 
7450 8584 13661 12521 1395 6323 10173 3143 12545 
10658 16843 15576 8996 9887 11316 12031 16118 8273 
10814 12528 8615 15462 8377 16860 17104 15022 6908 
16594 13788 3844 11549 939 8755 4327 5464 10016 
4381 10030 8134 1076 12234 7403 15966 5980 145 
3714 11593 5826 16328 14471 9327 12945 16729 16655 
13326 4792 15760 10567 5604 4604 5508 2915 11286 
13119 8518 12023 7477 17226 15782 17177 14746 14373 
12411 11045 14163 16599 10138 14762 17606 17206 12821 
8101 12327 11502 17182 7796 4510 3344 8966 14615 
5768 16306 12056 13438 3643 13702 17625 15770 6264 
2760 15465 38 594 5555 17021 12206 15077 9273 
8717 11208 11853 10424 11904 12771 14214 9064 1141 
17379 14433 15919 8372 15674 17156 8967 12946 17178 
16273 10767 9446 6205 16530 3881 6714 17817 3892 
17366 8674 7204 14088 14556 9089 3919 9687 3460 
8047 11364 12037 2384 2155 687 8011 15250 13283 
13503 10483 4539 1539 8044 1025 15722 7485 16289 
6329 12239 6341 5814 17210 10280 16981 758 15321 
17057 8979 12777 12386 11762 13958 6539 1326 11046 
17840 15797 15225 6821 11847 16224 4676 7574 4671 
12285 4777 1391 13072 45 17389 12390 6609 11480 
14129 8797 2839 2948 1112 1122 11118 7703 4013 
5219 12373 17476 17267 1244 10341 9538 12418 10103 
14072 14589 12338 12453 3327 10135 7646 7011 6213 
14203 15658 13709 14757 1287 15391 9375 2757 7370 
9168 16019 4493 5646 2292 9483 9493 10798 5026 
12919 5176 12497 3415 8579 17622 2011 5752 14816 
2540 11882 16845 11975 3160 7174 14300 12413 883 
9029 5454 1888 14681 14464 16060 6039 15887 15601 
12786 2103 3046 15888 690 8913 17237 3620 8352 
13495 11949 17173 12824 10257 562 169 12761 16291 
718 4475 12899 4986 10140 10500 15766 2612 17700 
8434 14851 53 12905 10172 13890 13767 11732 4420 
11414 5589 9895 11968 9227 14388 17677 5475 6285 
12122 3402 7756 5556 856 15353 10920 5388 15864 
4304 12097 9867 7377 13626 16063 11890 8428 2465 
228 6931 17190 752 6079 8613 8217 15307 14985 
1779 5798 14663 12175 4397 11211 15506 13664 768 
6498 2844 16129 13046 2695 15054 5279 5929 13311 
384 8582 3778 10132 12433 5727 15641 13038 16380 
3993 195 8805 12499 7763 16435 9144 10973 14238 
15744 8312 2160 14999 13773 307 12789 10136 10455 
3633 5391 12235 8542 8622 17006 8313 12201 4174 
11802 2758 15736 4439 15579 11838 6935 9429 5705 
13675 4959 3538 8450 11159 10212 3716 16276 5438 
4447 4699 16495 3839 7566 9486 15558 10073 2987 
11024 15149 5430 13558 7192 5782 9859 16948 13174 
2632 2729 2188 10023 5789 6547 6723 16919 9669 
10638 8023 1826 6240 16115 7506 5674 1066 6494 
4973 4164 910 13964 13479 1560 15594 4114 14261 
1794 13209 11726 10378 15234 12003 16048 3578 2230 
825 456 12819 2800 10725 5188 15272 3230 17209 
9528 17768 10306 6932 454 12507 11531 4751 663 
17835 13509 8800 3188 8173 8525 14962 17262 15680 
11587 125 16005 16863 2294 4617 4796 12966 13850 
8264 9714 8470 14786 17094 9704 11670 17033 4254 
7155 13144 7059 4906 17410 3776 17801 9017 6902 
9590 7770 875 7260 12569 17455 2325 10615 5346 
9378 13907 677 4841 13214 15755 13737 9605 8806 
14330 14874 9154 9878 9509 14538 8042 2870 16503 
12477 4128 1145 11577 225 11430 3373 14290 2909 
16494 17473 17733 5779 16908 3412 17126 13401 17444 
3652 14731 15214 5732 17150 12689 2013 15219 16698 
10350 3673 17727 2896 12369 9584 10372 17339 7800 
14395 14137 2983 10657 3383 14911 15879 2829 13130 
2986 2756 5524 14410 3666 17731 14552 9919 2438 
5122 11977 11140 14 11322 5828 6142 9020 2400 
14148 16119 3377 15078 5054 14095 4443 781 1715 
119 9934 1150 10384 12797 4364 7123 410 10326 
9593 16971 16985 16922 14105 7237 11739 5536 5654 
12370 2913 4774 330 16543 7720 5790 2491 3549 
11109 4256 6752 1846 5596 13520 2557 8601 9600 
13170 12712 11193 6766 6335 13712 8986 15215 7020 
11608 15014 7125 16251 7510 10579 8618 2469 10521 
6679 11713 3477 8936 1519 16275 13413 8106 2770 
4322 55 4983 16261 2727 15387 756 15532 11023 
5133 729 8323 3894 5404 12948 12305 14939 13281 
17830 7006 8022 16652 11412 2135 862 17285 4137 
23 11114 7976 6525 14803 12135 1100 16127 17305 
14260 2655 2764 2525 7530 2307 7264 9622 17642 
8288 3808 11158 13025 3167 8112 3064 16216 1793 
10972 3912 5338 4718 5594 13920 10964 10636 11886 
13372 15763 7109 10292 7655 8459 15921 11121 9956 
10785 14520 9877 10188 3890 15814 2238 11598 10575 
2066 8990 3132 16806 5264 313 4911 7994 6828 
5217 10585 8235 17502 9760 3126 4647 6624 12751 
3185 5719 7827 10116 2814 3141 5135 8041 9457 
2644 2959 14294 5684 13153 10196 9967 13803 4832 
4651 4191 1788 14090 2117 8304 14951 10869 2629 
1632 4072 6668 1754 1160 1769 12325 8907 266 
9185 2277 2393 9585 12294 3200 6290 11347 3879 
17136 14844 3697 6474 10748 486 2231 6347 9299 
9463 12395 1564 4236 15498 7135 9159 2139 15169 
8089 14151 5668 15705 16177 11398 5885 4616 6520 
5818 8163 2121 16710 9734 4996 10624 949 17312 
6067 9235 5775 5407 8748 2890 4591 524 16125 
697 8014 4691 15452 16158 3866 1552 1265 8544 
17730 2163 706 829 12228 5031 7554 1307 7400 
3886 11126 6900 7627 3172 3787 5923 11204 16602 
14414 3876 7715 1800 16081 2418 8439 7103 16625 
450 4568 11556 2060 1489 5274 1194 10866 9223 
166 10886 7198 12736 12113 13997 7629 5500 11372 
6272 2615 291 10582 12051 3391 7708 16880 1070 
14982 5499 13751 16198 17654 13240 14032 11218 13263 
6330 11652 14501 6521 7095 17250 13673 991 8065 
14153 4183 5288 6778 13949 211 8537 9258 5503 
12208 2623 2759 2936 942 3364 12488 13108 15941 
3579 4786 13775 5842 8927 5070 12716 16525 14868 
3544 3048 15891 3047 17352 10251 3457 1677 9443 
15193 15828 7980 17154 17016 1555 1180 17370 10676 
6288 15898 10660 17402 11665 2397 11812 6431 15698 
7653 8600 2261 14427 8921 13262 3926 17255 15771 
9987 15282 13294 3074 5053 7945 9858 12518 2917 
4937 6800 14550 8714 13795 11413 11080 11820 1224 
605 5462 14863 1804 11677 6907 12807 5412 5903 
12618 10788 5645 14635 3978 10442 14432 10095 8892 
17244 17122 4470 4630 12551 8813 11542 1891 10888 
1413 9090 13640 1462 15011 15813 873 8164 3034 
10887 12595 10327 15405 15439 16025 9045 12378 12481 
5895 10498 8526 9091 6530 10097 16940 13667 637 
5891 17317 7459 2558 5756 2652 17113 3467 595 
6261 16057 12204 6995 17640 11619 14625 7876 15142 
10445 12136 6674 14799 12709 16278 6234 2968 4190 
9485 11455 10651 5834 5383 11084 12902 15100 1220 
17151 1726 16447 11672 15132 7885 11239 17159 16409 
234 14548 15484 14760 9093 17022 16933 16193 17577 
13419 13036 11873 5546 9130 7842 7907 10933 10423 
8515 7112 7975 9046 9245 8419 6517 420 17323 
16765 12478 4877 10401 13210 699 9655 5318 16740 
2664 5470 8232 20 15183 9405 7856 2063 9822 
836 12942 7912 7634 16872 2532 4025 10256 11612 
15727 15065 9836 16243 16146 9777 13312 16657 9724 
16893 9999 3226 6188 812 12047 12476 12242 3768 
8937 5851 11647 13482 5530 14055 5278 3522 5748 
7037 13678 9426 10919 14836 10610 15590 8878 11861 
1778 11428 1276 6351 5540 1766 8850 15198 11146 
11631 9038 10079 4629 6317 14614 11725 14255 1678 
4748 11094 11568 14895 8939 11380 13217 1830 12282 
14938 11905 252 2638 4864 11738 5238 17634 17507 
5136 9730 13172 11778 17603 14149 8546 245 290 
17608 12502 1308 11238 8598 17077 5997 7466 8446 
16532 2205 11434 9747 5615 1915 2855 1074 15818 
16639 12964 6155 5964 15337 14544 3885 6150 9370 
15844 945 13182 7581 7734 14051 17450 16233 13819 
15555 12289 9281 2048 11078 4800 12752 10408 13447 
4594 674 42 2382 3878 17593 11953 15043 2280 
16211 7056 16043 8880 15113 2603 7424 9200 13178 
16035 1044 4972 10853 9845 8992 4601 1912 9420 
2679 5167 5267 14654 4098 158 17170 15773 92 
4282 13403 13927 7700 10914 10367 16978 2460 14234 
16195 15023 8511 6020 16053 7127 12685 6807 3127 
11330 4122 16117 3409 1235 1340 14285 14606 12699 
3110 9414 12780 13166 11520 17269 14937 14809 4212 
6685 4681 13457 5328 8840 6438 13604 7516 7790 
16011 10553 16566 259 5950 17657 5269 13113 3121 
10272 1106 10525 10137 15229 14473 4665 15377 16693 
6772 4146 10985 8456 10300 16864 11855 8872 17030 
2433 5843 3353 1023 12924 9489 5000 3854 1080 
10746 6131 14590 17228 17770 16650 14332 3647 4582 
16357 6469 13713 12496 13913 17093 8281 11678 7798 
3157 926 1042 11830 3478 6598 8448 9503 13837 
7119 3922 9214 15197 9171 10771 13705 11087 12493 
7217 10093 7525 3486 7364 12877 16430 15155 13317 
12516 15334 3516 16757 9910 12377 8146 9111 274 
13392 7261 13475 589 12711 13373 11419 14631 12967 
13838 1515 6531 7345 3700 15842 9843 5527 7208 
9641 1349 1837 4818 12764 14391 17844 2974 1172 
987 12016 16935 12420 16465 3361 4018 12189 6892 
16412 9682 14906 15719 15524 10029 408 7318 6143 
1471 15431 17848 8252 2646 2051 10039 13957 15450 
292 6407 11840 12334 1499 4813 14555 10460 2440 
4970 341 9369 2600 5473 71 12240 14758 16327 
8013 9614 16244 7486 10429 15241 6791 14691 3356 
2833 4923 11163 4969 1652 12086 9061 2452 7920 
2349 7799 4943 11447 11026 6118 952 11293 2898 
3611 7573 9701 11776 14480 6181 4017 1381 4762 
13502 2376 5321 11787 5739 15080 277 7570 17076 
3066 15967 13549 12119 3077 9059 17066 10937 3366 
1372 3685 16705 17662 17807 489 4978 17511 9762 
12756 9203 15655 16197 3225 14154 6812 5478 6731 
2217 15275 2955 10584 14023 13185 482 10639 12579 
17495 9647 12081 15280 8716 17589 186 13992 17498 
7149 11985 15166 9500 15687 17023 13238 14361 4138 
16002 9022 4975 17418 16945 14008 17015 13592 11112 
7654 4994 3698 14195 14320 9977 17620 2486 10094 
7707 13379 12367 13717 11049 1369 12730 8968 6095 
8890 16724 15368 4030 12762 16692 6677 9529 17179 
1146 13522 9955 15147 5906 2763 12871 12908 17034 
16891 7355 12617 12829 15651 11630 11680 7365 2303 
15045 15413 13651 7327 1029 6855 8981 8380 5802 
5830 9206 221 15983 1241 9520 6458 16541 6870 
13484 12864 9545 16476 2990 8636 10189 2203 13016 
722 15678 12650 16799 3443 12487 13669 12038 15604 
7526 2905 12475 13688 8894 6467 7161 12600 16061 
3274 1687 10208 10776 4949 11437 4350 16898 8543 
3114 14439 17585 15382 10554 7252 2258 4574 15833 
5620 14729 14791 14336 10449 1210 7752 12813 3017 
1972 8050 8137 17506 7930 4100 4872 3598 9488 
14692 8275 1046 4561 8926 12803 1984 11170 11189 
402 15361 4172 12956 10217 6787 14925 12349 17724 
8103 9161 12375 8745 7782 9 11770 10288 7687 
8547 6354 14953 11350 12059 6964 15900 16190 17109 
10166 15135 16865 14039 273 13047 4931 16345 616 
1686 5416 5800 12917 741 8998 3574 14944 14111 
13902 3459 6089 14227 17526 7518 10298 11650 11938 
12134 5095 7517 2067 3218 5777 3710 583 15123 
17054 6956 6268 1425 17293 3473 10535 5763 1300 
7391 13534 916 11420 15743 17041 16269 4314 11488 
6259 14901 15926 2982 9798 10171 4714 5755 9127 
14917 7475 3195 6187 5213 795 13967 2551 5560 
10451 10872 8169 9293 4245 2071 14802 4173 11010 
1286 4271 610 2012 7160 9147 1569 7425 348 
4306 8768 2194 4276 12952 1166 4119 1282 5603 
8702 2209 2579 7483 12249 566 12882 17048 16284 
11248 8922 8862 15003 494 8733 4094 4771 7412 
13045 11291 16954 6634 7635 10938 289 3618 17516 
4733 709 6280 16615 4567 16852 1312 5647 6631 
9298 10181 1844 2768 15119 6358 17795 8156 3453 
4839 3757 5202 2314 1543 7156 1821 12765 15302 
5553 601 1329 16076 1635 7539 7421 8141 666 
8472 10790 7527 2015 1942 6889 4910 13340 11628 
4782 9595 5235 6021 527 1333 11031 1447 11716 
8762 6899 7991 2883 17318 2690 3363 9524 3011 
409 9891 5947 6919 11477 9282 10511 8585 5048 
7683 1064 8886 14915 15901 2900 1805 2575 2008 
2946 5170 17805 15583 1590 9556 11499 11402 3222 
11824 6361 12026 1840 8494 625 13459 162 9224 
4904 14717 7829 12559 5519 1623 12542 11698 8072 
1556 459 17779 8561 7300 4793 6566 14957 1877 
10908 1056 962 8363 4887 1606 2040 12854 8310 
16427 15610 14389 6912 2178 8819 11125 15300 13994 
16442 3551 14134 5340 15049 1589 65 6614 6130 
15104 13302 5408 5474 8775 16487 9661 7150 14232 
10574 6442 11360 14914 1728 7853 8950 12695 9333 
4633 15400 923 7582 7132 6971 2202 13965 9550 
378 515 5161 8498 9680 14898 7418 7873 13368 
17045 1324 11440 7904 11529 10669 17137 7082 10777 
11720 1409 5954 13865 15359 14658 16560 4300 16240 
15547 13386 8131 5676 7989 2707 10454 15661 2490 
2549 10452 7272 4285 6138 11899 3387 13305 16644 
2503 10100 14568 11915 12065 6319 17148 8060 10456 
14351 13666 457 2055 1699 5437 7239 12245 16571 
1480 17481 1985 10446 2891 7269 11123 2649 10018 
2696 13103 10404 14673 14436 6424 226 4253 14477 
14866 10001 11301 11067 10501 10400 1478 2214 4417 
15342 16731 14313 3407 4135 90 10942 16545 16259 
5492 1872 13777 1294 8142 17012 11561 8962 1461 
14819 12035 1923 12264 13846 3796 15872 13901 13039 
14877 8706 11423 6456 10573 1441 10464 4965 11324 
12326 15713 10984 13393 6149 7255 6061 17149 11047 
12556 9190 11851 15990 9353 13470 7836 15189 4038 
5036 14020 7987 2253 10818 7709 14933 12068 16407 
14990 5847 9921 887 725 16130 6056 4795 9274 
15902 9003 4811 8000 11297 8689 15987 12867 3622 
8231 5574 11671 10346 3102 11460 13650 11371 8641 
2598 16042 5139 1240 6432 6927 124 13820 3984 
16301 5564 16448 8404 15438 13463 10389 9607 9069 
15961 3756 8342 7908 5138 3463 10549 13755 16255 
4362 17440 10468 3256 6770 3458 5522 11465 10731 
16749 5578 7402 12642 9567 5725 12960 14113 3799 
5055 5887 11456 12073 16009 8795 10211 5864 6244 
13110 11264 12570 12665 7955 16370 11116 11068 17353 
9963 14560 8248 9756 8061 4185 9499 771 9761 
12753 8318 10539 9703 14366 13923 10028 819 5946 
614 15965 11061 2524 13175 4588 8179 10487 2062 
13199 2362 15980 1494 3870 7087 14976 6065 10673 
8333 5320 16366 15994 4240 1414 11736 14510 14848 
2501 10507 11936 1563 16485 4519 4836 2134 17558 
17211 5504 16311 10203 16603 16188 13897 4102 3228 
15915 10876 533 11654 5317 13085 12025 5272 12179 
6372 6271 2446 7090 12909 11055 10335 13219 537 
3108 7347 16707 17670 7151 2367 8891 9954 8801 
16649 14017 9480 12971 2340 16079 4537 5925 8859 
12010 5463 4274 13075 6675 13118 8214 11823 4342 
11418 8860 13634 14417 12244 7502 5517 2138 1303 
16389 5003 6153 16126 13753 789 13247 15139 7195 
8709 8502 10522 9179 14748 16616 3952 14900 14970 
1773 11856 10805 8740 9051 7480 16901 16918 14634 
16008 14478 4379 10096 14299 8177 14186 2775 4309 
721 9344 2728 8184 11947 14024 14094 14751 10713 
11923 12449 10289 7995 11260 7168 13937 6070 2488 
9722 15565 385 17651 7115 6750 10026 3828 5963 
5306 11432 7319 5435 2059 14752 16473 2132 1497 
12148 1325 2405 194 17591 9901 10652 6965 3178 
6016 16827 7170 10760 15093 6162 17192 7476 16163 
9829 6978 14823 8262 16813 2819 9806 14891 11487 
16481 11695 9002 6217 1764 9563 16802 8635 3488 
2686 13631 3655 10304 6480 7049 11091 11184 17223 
6054 14092 7936 12293 11760 15052 14397 9074 8728 
8685 14460 11666 8540 4083 16089 12468 10695 16723 
15672 4842 10752 7173 6057 2077 14326 16199 5131 
13652 15256 14344 13985 3330 6682 11956 12381 8915 
5390 11482 9785 6798 14122 16441 17705 1253 16728 
3896 7761 4542 15856 16748 6638 7892 3746 17791 
9837 14162 12290 11960 10543 15876 13505 6420 13863 
822 13398 5421 12434 11722 14377 13408 2815 11880 
5691 16739 16822 1036 3229 6875 13014 17102 13594 
14087 14507 4895 3447 4611 16752 5179 1006 1982 
7096 1897 7934 6776 11504 7563 5701 1072 5145 
12057 8006 2260 16277 9879 3827 4939 2527 5988 
6961 5584 1218 7171 2443 7874 15436 5357 4086 
7172 1053 15255 11980 3417 1853 10528 15024 8603 
6824 9379 10371 15826 13411 17263 10118 17475 2996 
3462 14517 6345 10960 17688 1306 14455 8923 16825 
2255 11266 3941 10706 5970 3260 11622 9521 11060 
8153 14060 11346 12993 15419 16524 3491 15168 12795 
4927 3817 5567 10273 6582 7162 3726 16890 17773 
4131 14534 344 7697 8955 15042 4313 2341 12840 
15201 4742 3128 14335 4856 5579 8085 15010 3631 
3277 5967 1431 16751 6077 3370 14699 16511 9204 
7886 14347 11742 7568 7755 6866 14959 5957 342 
9650 9770 1583 2268 17691 13095 16237 1517 13073 
5977 7408 10402 7578 4621 14708 3380 11056 13359 
17042 12741 9313 8070 2147 9831 2375 12441 458 
15728 14499 13452 5326 4250 3650 9349 9466 6072 
6338 10792 7852 7645 15592 17704 11244 5785 9920 
6091 1465 5452 14820 16349 14369 12994 4483 17570 
16488 9576 8475 6973 16148 10976 1612 13037 12953 
15947 5535 16183 14812 15827 14961 7137 16101 16831 
15422 9804 2817 9985 13298 17363 10537 13545 12225 
17769 16930 7758 14225 17663 1856 15940 13384 2084 
16529 12103 9478 14675 14115 13429 9366 15318 3766 
8182 10611 12251 1536 15781 11757 4953 9996 56 
6683 7577 7066 16376 15383 12142 12538 12883 7178 
14518 2643 7613 17810 8792 3159 13815 9416 5865 
4287 7471 7929 17758 15316 12213 15984 17098 2311 
13506 16455 308 4360 1090 15059 13451 4010 4426 
8269 3675 17687 16140 4834 2947 10348 5537 17721 
14070 2353 660 14792 16450 4106 13977 2415 17336 
15127 4003 13525 3556 241 8946 15801 6831 8408 
14773 1426 4805 15288 15295 4396 1474 17454 8261 
6540 9028 4918 15284 10297 3508 14038 13691 8113 
6175 3073 11939 1775 1422 2562 8884 11780 11251 
9496 2185 16452 8694 8993 5989 14091 15371 15379 
8120 16335 1930 4132 14653 7290 10407 11868 11288 
2779 11002 4242 15366 6427 14719 14524 9241 8144 
9321 1629 4755 10505 12818 1857 11710 15733 10484 
5831 14029 11079 5130 15176 10506 12888 6051 6823 
5245 4450 1875 8623 5591 6133 1684 17597 715 
1622 7067 9118 8186 2029 13101 16351 6985 4269 
14678 9268 11931 16766 13300 13220 7626 8596 13768 
14870 1996 11602 12513 13053 4865 213 9673 11756 
6642 17439 10780 4488 11719 13740 140 3345 7637 
11044 8329 9450 10330 14041 16348 16334 14645 1962 
12734 13663 12020 5512 5220 6433 4749 2878 13608 
1878 7662 4590 9265 10566 12013 6918 16600 17594 
17362 3176 9096 1522 7997 4333 8 2937 3275 
16838 12162 6385 3347 2880 13236 98 8920 12416 
14777 827 2331 363 13754 15471 6673 2872 17576 
6454 189 9395 11761 9653 14533 3665 14062 14375 
7863 2753 5312 12062 8620 4158 5916 1003 7286 
7207 6037 15741 262 9425 310 9264 10145 12943 
17503 12745 15862 801 12380 3575 7247 12183 12163 
4329 5125 2823 157 11073 17068 16010 2903 11528 
17127 2877 5971 6415 4844 6688 1892 17107 3075 
12865 13521 17220 888 9890 6034 15384 1646 5428 
745 4334 15831 4349 267 3784 14695 4545 15574 
17763 1562 14750 7308 8132 39 3267 15950 13809 
1672 16167 8985 14359 15869 9068 6946 6864 1512 
15971 7064 9423 9358 618 6134 2196 3000 12387 
5022 8741 8951 203 4613 6681 7640 8696 4019 
10602 5608 9905 14421 16709 12686 3740 12446 3241 
5640 15157 11383 8660 4043 3360 2592 3670 6748 
12024 4442 2257 966 16136 6782 15859 15792 5332 
6141 12271 10072 13497 9773 6896 2786 5664 182 
12773 7705 17429 4151 12224 5675 4894 10386 4280 
6357 17357 12147 7617 648 9945 804 17602 6324 
12217 6315 10216 3023 11306 1483 11258 16431 7353 
12876 6816 8244 5374 10840 11358 5447 2017 6410 
8904 3311 15852 5534 1751 7884 13051 7828 8417 
16087 15397 4160 10548 13017 11075 2161 1004 7351 