# vtk DataFile Version 5.1
Generated by LIGGGHTS
ASCII
DATASET POLYDATA
POINTS 17850 float
-0.0038764 -0.025096 0.00217926 0.00627966 -0.0210086 0.00193627 0.00809847 -0.0200657 0.00260543 
0.00437911 -0.0187632 0.00196103 0.00740599 -0.019098 0.00242502 0.0100254 -0.0183312 0.00225907 
0.0130498 -0.0165429 0.00250128 0.00313856 -0.0165197 0.00202651 -0.00782522 -0.0148145 0.00194503 
0.0063642 -0.0141161 0.00226732 0.00389782 -0.0145556 0.00184714 -0.0260203 -0.013472 0.00198042 
-0.00419247 -0.0110989 0.00208551 0.0264729 -0.0127453 0.00237462 -0.0272512 -0.0107534 0.00254312 
-0.0205662 -0.0123512 0.00229109 -0.0179013 -0.0134277 0.00155376 -0.00868609 -0.0108757 0.00194566 
0.024507 -0.0122362 0.00200529 0.00675032 -0.0101128 0.0022106 -0.0194487 -0.00860434 0.00238043 
0.00854952 -0.00965221 0.00201671 0.0088619 -0.00728472 0.00193702 -0.00279032 -0.00732767 0.00173233 
0.0108606 -0.00703551 0.00234867 0.0265803 -0.00789278 0.0023951 0.0072732 -0.00713958 0.00207316 
0.0120662 -0.00577314 0.00230949 -0.0105671 -0.00655448 0.00177113 0.00391517 -0.0056391 0.00202041 
0.0288721 -0.00535674 0.00287257 0.00485807 -0.0040842 0.00174813 0.0284351 -0.00429259 0.0026844 
0.0264365 -0.0028452 0.00275905 -0.0110695 -0.00170692 0.00185483 -0.00932515 -0.00232047 0.00219418 
-0.00443177 -0.00160689 0.00186343 -0.0129195 -0.000682696 0.00195607 -0.00148685 -0.00218341 0.00157069 
0.0234532 0.000735361 0.00183161 0.0271579 0.00107807 0.00256397 -0.00937939 0.00267042 0.00164089 
0.0284979 0.00273722 0.00264007 -0.00350138 0.00641536 0.00209005 -0.00105225 0.00665188 0.00244028 
0.0064516 0.00963234 0.00289073 0.0190053 0.00858964 0.00257916 -0.00193172 0.00941596 0.00280678 
0.0109312 0.00897361 0.00257381 0.0169718 0.00945124 0.00266508 0.0180171 0.0102691 0.00296426 
-0.00142125 0.0107114 0.0027813 0.00427324 0.0117077 0.00320971 0.0151201 0.00990205 0.00275499 
0.000249843 0.01207 0.00280712 0.00230308 0.0123818 0.00274354 0.00572819 0.0111798 0.00261426 
0.0181545 0.0127801 0.00263168 0.0150063 0.0133791 0.00301153 0.0195161 0.0132621 0.00232634 
0.0179808 0.0138189 0.00304282 0.00351981 0.0148116 0.00283362 0.00690918 0.0126709 0.0029938 
0.0174441 0.0148225 0.00290666 0.00618605 0.015471 0.00282887 0.00832391 0.0145301 0.00291291 
0.00770786 0.0166364 0.00306317 0.014784 0.015757 0.00288337 0.0114792 0.0171732 0.00294082 
0.0124254 0.017221 0.00347232 0.0122978 0.0183502 0.00306598 0.0104609 0.0183015 0.00292407 
0.0113039 0.0199218 0.00264073 0.00746646 0.0238932 0.00227179 -5.71248e-05 0.0244238 0.00211624 
-0.00189303 0.0249272 0.00221282 -0.00546701 0.026429 0.00193644 -0.000140168 0.0263926 0.00219374 
0.0135058 0.0258889 0.00253603 0.00111057 0.0265243 0.00204472 0.00480851 0.0269401 0.00311758 
0.0111822 0.0263032 0.0024615 -0.00353356 0.0271779 0.00231286 -0.0013185 0.0266586 0.00202186 
0.000411945 0.0274367 0.00256882 0.00181901 0.0270584 0.00306995 -0.00156197 0.0282027 0.00206297 
0.00264757 0.0272314 0.00215683 0.00441958 0.0277684 0.00250778 -0.00261589 0.0292754 0.0022032 
-0.000448675 0.0294055 0.00291223 0.00136053 0.0292672 0.00212372 -0.00490219 -0.0287379 0.00217226 
-0.00124017 -0.0279819 0.00190058 -0.00837387 -0.0281555 0.00236269 -0.00604813 -0.0283808 0.00211579 
-0.00278192 -0.0291556 0.00212523 -0.00333133 -0.0280266 0.00240671 -0.0105732 -0.0267312 0.00200698 
-0.00679756 -0.0265705 0.00243199 -0.00533999 -0.0272766 0.00243592 -0.00810459 -0.026348 0.00266223 
-0.00583031 -0.0260306 0.00199906 0.00486902 -0.0249975 0.00220976 -0.0083479 -0.0234541 0.00228474 
-0.00695197 -0.0231755 0.00208742 0.00833746 -0.0242649 0.00170152 0.00513045 -0.021039 0.00165913 
0.00940917 -0.0194416 0.00238048 0.0115545 -0.0198488 0.00229243 0.00842113 -0.0187695 0.00240757 
0.0162277 -0.0192377 0.00188167 -0.0179026 -0.0184347 0.00180891 0.0114532 -0.0178486 0.00249172 
0.0150827 -0.0182607 0.00202736 0.00702061 -0.0167072 0.00271723 0.00879418 -0.0164376 0.00273955 
0.0140126 -0.0179618 0.00248717 0.00622411 -0.0154988 0.00243722 0.014132 -0.016163 0.0023757 
0.0231929 -0.0168596 0.00198849 0.00519937 -0.0151166 0.00212169 0.0105223 -0.0160236 0.00244583 
0.0133652 -0.0153315 0.00237077 -0.0106418 -0.0150748 0.00133634 0.0107441 -0.0145539 0.00264822 
0.0143827 -0.0142166 0.00258009 -0.0028429 -0.0150257 0.00159946 0.0083182 -0.0135309 0.00226579 
0.0117486 -0.0126666 0.00224977 0.0033928 -0.0124334 0.00177163 0.0248029 -0.0132713 0.00251997 
-0.0241266 -0.0146282 0.00210959 -0.00304127 -0.0112032 0.00173281 -0.00014159 -0.0109954 0.00164805 
0.00441307 -0.0118994 0.00175255 0.00810556 -0.0115389 0.0018658 0.0100094 -0.011816 0.00230764 
0.0109949 -0.0112728 0.00225975 -0.0191499 -0.0106894 0.00243872 -0.0174175 -0.0126421 0.00231522 
-0.00435236 -0.00995483 0.0018223 0.0235056 -0.0125099 0.00242815 0.0268667 -0.0117472 0.00220648 
-0.0278389 -0.00958355 0.00176864 -0.0199188 -0.00966948 0.00221548 -0.00961414 -0.00948861 0.00203331 
0.000331112 -0.00914118 0.00248516 0.0108696 -0.00954639 0.00246101 0.0266259 -0.0104148 0.00223676 
0.0248584 -0.00907687 0.0025365 -0.00450607 -0.00817702 0.00238862 -0.000601898 -0.00875996 0.00196137 
0.0272396 -0.00881243 0.00257739 -0.0158559 -0.00765239 0.00166657 0.000274194 -0.00801936 0.00156411 
-0.0135813 -0.00740298 0.00202428 -0.0065261 -0.00651949 0.00102492 0.0059411 -0.00621434 0.00211267 
0.0100749 -0.00605134 0.00225588 0.0270071 -0.00641625 0.00265883 0.0286148 -0.00669646 0.00283507 
0.00487801 -0.00625456 0.00222449 0.0228166 -0.00665393 0.00184242 0.00308015 -0.00456834 0.00242886 
-0.0132642 -0.0048005 0.00179467 0.0248742 -0.00456353 0.00271363 -0.0105302 -0.00491373 0.00192116 
-0.0075118 -0.00509824 0.00229628 -0.0039673 -0.0050409 0.00164921 0.00371259 -0.00285048 0.00190502 
0.00699517 -0.00338037 0.00170585 0.0259402 -0.00449019 0.00323255 -0.012986 -0.00319449 0.00196556 
-0.0119071 -0.00436993 0.00148862 -0.00248418 -0.00422315 0.00150623 -0.000875893 -0.00410966 0.00223921 
-0.0141317 -0.00252426 0.00195157 -0.0120503 -0.00240657 0.00187939 -0.0095735 -0.00376562 0.00193788 
-0.00708228 -0.00240542 0.00207645 -0.00594063 -0.00191998 0.00201027 -0.00356696 -0.00392689 0.0018695 
-0.0145007 -0.00161829 0.00255225 -0.00223592 -0.00304456 0.00180536 0.0271216 -0.00127571 0.0026025 
-0.011782 -0.000692683 0.001666 -0.00895555 0.000118 0.0013695 0.0215416 -0.000963498 0.00173475 
0.0252367 -0.000928205 0.00258529 0.0262116 -0.000486425 0.00267189 0.029375 -0.000903833 0.00265367 
-0.014275 -0.000857659 0.00178048 0.0253754 0.000128309 0.00286476 -0.0124637 0.00112226 0.00205959 
-0.00204962 0.000820637 0.00193866 -0.000267105 0.00066162 0.00218636 0.0260076 0.000910857 0.00311782 
0.0282296 0.000672473 0.00316828 0.000974522 0.00195864 0.00218188 0.0213341 0.00150644 0.00161825 
0.0248411 0.00110863 0.00270892 0.0289412 0.00191295 0.00212856 -0.00276121 0.00163225 0.00210839 
-0.0016878 0.00193587 0.00206248 0.025752 0.00209989 0.00264349 0.0272015 0.0022448 0.00226332 
0.026083 0.00311224 0.00220871 0.0279176 0.00389809 0.00220622 -0.0283695 0.00370895 0.00169695 
-0.00340648 0.00275169 0.00232327 0.000263158 0.00299112 0.0023348 0.0200347 0.00407884 0.00174594 
0.0245095 0.0042345 0.00179284 0.0290253 0.00431561 0.0020172 -0.00303615 0.00372164 0.00183718 
0.000237386 0.00409284 0.00232999 0.0277321 0.00515616 0.00238572 0.0193771 0.00499278 0.00174436 
-0.00129577 0.00540964 0.00261061 0.00194024 0.00519539 0.00259102 0.0267048 0.0057546 0.00188098 
-0.00353688 0.00755987 0.00213125 0.00128579 0.00615332 0.00227563 0.00512069 0.00540785 0.00202684 
4.6797e-06 0.00637573 0.00268204 0.00726922 0.0062879 0.00204413 0.00218122 0.00723701 0.00264905 
0.00355738 0.00785315 0.00271203 0.0147197 0.00675889 0.00214126 -0.000542778 0.00771855 0.00259978 
0.000540542 0.00809245 0.00256359 0.0043569 0.00865118 0.00295946 0.0155785 0.00779825 0.00245945 
-0.00102743 0.00875047 0.00258627 -0.000306121 0.0097933 0.00254521 0.00105469 0.00917104 0.00285493 
0.00268257 0.00938768 0.0029164 0.00915702 0.00908465 0.00253598 0.0136558 0.00796804 0.00254931 
0.0180543 0.00905547 0.00252003 -0.00305059 0.0101862 0.00251566 0.00365178 0.0100047 0.00317279 
0.00475912 0.010349 0.00304753 0.00552495 0.00897407 0.00267599 0.00821549 0.00973726 0.0027701 
0.00994689 0.0100451 0.00282425 0.0119544 0.0085576 0.00265928 0.0248905 0.0102364 0.00165287 
0.000525158 0.010378 0.00229282 0.00346003 0.0114382 0.00220924 0.011196 0.0100859 0.0028466 
0.0128704 0.0092236 0.00249905 0.0139853 0.0093392 0.00254259 0.0162069 0.010259 0.00294693 
0.0190694 0.0105893 0.00269439 0.0201494 0.0112712 0.00232995 0.0227216 0.0112058 0.00208582 
-0.00191374 0.01183 0.00253973 0.00524199 0.0122286 0.00299215 0.00750154 0.0110506 0.00267209 
0.0124532 0.0102311 0.00283089 0.0142562 0.010695 0.00292851 0.0179465 0.0112523 0.00239121 
0.0221651 0.0123042 0.00200979 -0.0244691 0.0129105 0.00173206 -0.00385513 0.0125682 0.00208636 
0.00418859 0.0129163 0.00310785 0.0134368 0.0114781 0.0027227 0.0151207 0.0121824 0.00301983 
0.0166789 0.0124641 0.00272666 0.0191046 0.0121424 0.00248891 0.0235827 0.0121649 0.00207457 
0.0215194 0.0131714 0.0023639 0.0226464 0.0129386 0.0027907 0.00110985 0.0137798 0.00243996 
0.0023147 0.0145046 0.00271974 0.00509327 0.0141184 0.00299234 0.0119149 0.012832 0.00294968 
0.0169727 0.0134379 0.00309203 0.020967 0.014154 0.00210653 0.00477718 0.0152801 0.00301969 
0.0147492 0.0144833 0.0031754 0.0163875 0.0143687 0.00282372 0.0187579 0.0148686 0.00316827 
0.0235163 0.0151755 0.00208913 0.0249555 0.0154486 0.00225807 0.000403061 0.015739 0.00303603 
0.00385288 0.0157882 0.00248854 0.00946845 0.0153012 0.00289675 0.019719 0.0158086 0.00290076 
0.0053602 0.0163003 0.00288998 0.00855912 0.0160275 0.00277704 0.0100119 0.0163077 0.00329237 
0.016444 0.0164781 0.00312973 0.0180198 0.0159462 0.00283978 0.00387369 0.0174292 0.00269539 
0.00649234 0.0165848 0.00293151 0.0127587 0.0159751 0.00325166 0.013834 0.016444 0.00300859 
[...]
POINT_DATA 17850
FIELD FieldData 6
id 1 17850 int
10568 17448 1434 10696 17379 11544 14838 4685 13017 
17725 11031 15547 2293 10290 5952 13678 6669 14082 
4644 6712 2344 11777 927 971 1078 6710 8764 
11333 17006 7307 8221 7051 12195 805 9534 17369 
6807 11325 17811 6815 8118 5937 4553 2927 17339 
3539 10917 2369 16341 1907 17126 3905 2755 178 
830 9487 9697 16517 14695 3279 9220 15889 11659 
15176 6673 10980 8742 1293 6765 3119 17488 3555 
11303 6124 1964 16174 4466 2001 8464 3639 11393 
12247 11682 7135 1979 5619 9163 5976 16931 5121 
4733 2320 2483 4505 2379 8028 12012 9924 10532 
12532 15421 1695 10556 4491 3940 14056 11891 10924 
10618 3724 10423 4318 11480 102 6975 14950 10190 
3590 12581 16192 37 9510 15034 9461 12276 16410 
9868 10374 17641 379 10677 14088 667 9485 10062 
685 573 797 8520 13715 11859 2852 14223 16456 
17313 17471 5317 11612 10029 460 3753 11185 4091 
11784 11861 11466 141 5919 12232 8210 6689 13544 
5615 3497 10681 12282 16343 11330 4445 357 8261 
15432 1248 11339 16649 8782 9016 3705 7886 346 
1888 10486 7907 8453 9898 2253 5967 3467 14967 
6826 5136 5504 6846 17563 13475 14664 1235 16904 
11840 15572 9171 3335 12635 16845 2177 7124 10821 
6420 10965 10367 5069 732 5530 6882 1627 4676 
2968 1177 7323 1112 4007 15180 16086 641 15217 
11884 1528 10039 15748 11132 14380 11199 10287 1941 
5738 11074 13861 12255 7510 3348 6652 2481 13872 
13480 3794 12015 9118 15806 9515 6875 6654 8016 
12472 7143 10812 7026 8287 9602 9737 5087 4861 
16408 13647 6790 748 576 10631 9053 14630 14871 
14889 9970 12820 16452 551 764 15740 15119 12372 
6643 11598 15830 8098 2014 6017 779 15240 15082 
4395 1865 1065 17753 17072 1618 15868 7381 11523 
3749 13899 16299 12203 6540 5871 6681 3853 7149 
1052 14859 4256 4081 13860 7500 2175 9374 6768 
6736 446 10491 5461 14731 3135 9540 15742 6620 
17442 6212 15157 4065 3111 14552 1900 1744 15211 
5606 6376 12687 12135 5715 15787 8994 731 4244 
1488 15644 11284 15123 17143 17452 1512 16610 6123 
4193 15860 15 4811 11450 6589 14199 3480 13410 
10534 15492 376 10888 12555 5641 16546 466 672 
10200 785 366 47 2549 7257 16958 6215 10727 
6586 12628 12026 13821 15551 6457 6842 15251 8170 
2473 2060 13018 6177 15845 243 12435 4430 9073 
151 8736 14192 15944 6847 8230 4358 8788 10876 
12688 9102 1435 11720 7015 1129 10246 17754 3270 
2659 12115 9253 2704 4432 14551 16570 15582 11898 
9724 12896 7973 1725 16834 16687 14667 15474 14839 
9490 7650 14835 4414 6378 630 3091 11945 15373 
6202 13367 5486 4355 6206 7145 10355 6291 14606 
4816 4550 3999 1268 14578 15490 8155 2810 5767 
4588 2915 5801 3637 14389 13286 8290 14317 933 
17075 17083 4874 5179 7138 8152 16105 13408 6392 
15231 17355 4089 16941 2669 3108 12097 11460 11106 
5222 16196 1297 8073 8250 15704 9479 2428 12099 
16129 16245 10883 1229 12187 9607 1080 11957 17815 
9743 14096 10707 12314 8060 8441 10509 12109 8013 
5772 9769 1192 12098 11539 2780 17438 470 14806 
6919 8140 10990 9405 10553 11256 15624 17121 11803 
2269 3602 5139 373 3277 9324 9963 10903 15884 
9486 1122 4024 17678 7214 5936 6685 710 6834 
9647 10531 3123 13 16154 13200 312 6357 15464 
3593 13893 16770 106 6923 9494 17435 12452 6547 
11695 8500 17146 14985 17004 16235 4700 15726 12626 
11699 13569 17501 15198 6861 8645 15946 8340 647 
926 7039 15739 1817 8915 17289 12631 10792 13653 
585 12244 12981 6646 16362 1182 3304 14895 9869 
9806 12412 3194 15084 17493 17225 1 2817 17704 
7052 12104 7396 15897 7892 3862 3505 9944 9511 
11034 956 15297 4181 2039 13441 2138 10033 10581 
12363 14249 15636 5440 4990 15080 12334 17618 7903 
15664 12568 5165 13266 2444 6527 16555 17529 13213 
11082 5945 11583 15023 6711 11323 4756 13184 3209 
11385 16019 6045 12063 11331 9512 6775 89 13026 
9414 11855 16304 4537 13827 11918 7560 6568 7972 
10234 11344 6294 11376 1053 9959 5870 16520 3865 
15401 4407 3616 1257 2203 16497 15010 12266 15618 
3483 4339 996 2898 658 5547 8534 11921 10659 
8068 4262 7066 7278 8486 571 15854 10288 16922 
9152 6184 5030 7838 94 10438 2583 10560 8433 
15201 1956 3788 10640 14973 356 3445 896 8874 
12805 3793 2548 10017 12672 108 12655 9057 9337 
15263 5548 14378 12732 273 16288 12358 3004 16276 
476 8112 4202 9431 17825 7155 10949 780 5836 
288 14458 5367 6204 2372 827 7209 1954 726 
8881 15330 239 15534 12601 13167 5766 15435 3263 
3913 10021 6502 17082 3331 13404 17018 13140 2995 
8086 12231 14932 7801 7017 8690 13990 16197 2122 
4142 10240 15518 13406 3443 17460 11491 16600 14678 
1603 15978 15600 4545 7362 9678 5071 15597 17294 
12686 503 11737 8981 3275 9095 3089 9112 11039 
8547 4876 7968 4579 12209 17041 7350 17769 10794 
14996 5297 10005 14587 13521 11407 32 11311 4483 
2831 9147 16869 1450 14659 3493 16402 14874 16206 
5593 10495 17270 3477 1787 8759 7405 6404 15751 
8566 17068 3621 8332 542 9425 592 10112 2167 
4376 14774 8712 4941 7113 5647 214 5563 889 
5668 14850 4387 2555 4669 2117 5488 5666 6516 
17293 16852 11810 10719 11138 9728 11157 3515 2399 
10929 9298 3707 15074 1696 11119 2126 848 9710 
7033 400 12436 7508 4184 7401 11249 11353 962 
1908 11818 7503 2931 6795 11552 5265 11808 5492 
6076 6396 16878 2074 10744 2546 9501 12559 17541 
12458 15489 9155 13231 9135 5969 2742 5051 11382 
1666 8157 2526 15016 7239 11290 3570 147 16965 
17803 10673 8213 14117 2446 11809 279 5484 16856 
1554 5519 15679 13316 8003 14173 8568 15077 12624 
2663 6592 3756 9117 16697 7625 52 3479 4160 
7134 10660 14169 3713 775 1928 17286 11126 13971 
6159 11075 13805 7316 6351 7692 14511 1368 11553 
11252 9232 13146 14358 5015 1455 3543 11740 12170 
5162 16325 16132 3285 8664 9604 16872 17353 17490 
14498 11693 1814 699 13667 16583 16257 11424 143 
9109 16775 17245 13013 6566 4057 9567 15598 15980 
9692 10 13294 15088 12083 13817 17464 970 13481 
14153 5453 4809 10927 13306 16956 17210 13863 2759 
13270 14639 1751 5386 15953 5679 4196 7437 873 
10102 16156 6548 3959 11674 9553 10779 3748 14155 
1860 6706 9303 11814 3671 15279 15700 3933 1680 
10959 5847 10765 5197 11976 5291 117 6588 2025 
6475 13950 17377 651 12880 14757 7862 3718 9314 
15160 2198 15404 11696 65 5649 6530 9832 17579 
6321 12179 4540 2068 2457 17508 15267 777 13465 
12037 861 8266 6386 6444 17211 1685 191 886 
4880 10093 15317 13043 8502 16329 13122 2461 640 
15786 17392 5941 13787 932 6071 15325 15657 13966 
6231 13586 38 3514 5799 2500 160 16678 5875 
5383 671 11870 5521 13032 7670 11204 11953 12034 
1950 4077 1694 3001 3583 13657 15907 9988 17679 
3484 6341 10721 444 16907 1120 6431 11269 3049 
12277 6915 4308 9684 5037 7045 4728 5365 7220 
11433 17164 1991 6198 17205 17608 16642 8898 717 
5038 8663 14519 9626 16626 10392 1786 14592 1937 
7777 14393 3320 7371 17601 950 11151 265 5686 
8855 9881 1932 2208 17647 13107 3594 5412 8777 
2830 821 17161 13553 9211 721 10488 5602 15405 
16212 16933 15307 17226 8859 8406 15575 15977 11670 
16901 8124 10254 4076 7913 17184 234 15962 12455 
16952 13564 2160 17022 15081 9625 883 13092 1605 
1506 134 17423 7581 13206 7790 10596 1572 8553 
7966 7087 10273 727 12493 16109 4547 11414 12365 
12611 15780 10773 4086 6235 14963 8846 5650 3517 
6805 2750 8198 2479 17634 9032 6391 17222 14413 
12057 2839 12870 15615 2376 1898 15755 11730 16363 
1947 11319 4849 11364 11196 14147 10127 12201 9377 
7226 838 15793 15822 1040 1887 9218 16972 13020 
5713 2732 12165 4611 6428 13091 6118 5180 9841 
8845 17167 4924 12791 10289 12182 14278 13141 7889 
560 9543 11232 1111 16213 9286 14906 16617 5177 
4681 3867 11395 1830 17465 2856 12926 17078 15224 
16955 2642 3712 4955 6723 987 13819 11289 10788 
3448 1402 3389 11734 9139 7469 2729 4820 8175 
9129 5129 13728 16751 14329 12737 8574 7663 2826 
9329 11430 2590 259 9731 9645 13956 2800 17726 
7784 3381 10352 17070 913 13173 8452 15876 11392 
5910 557 5854 10577 4636 10704 13963 12572 16430 
338 3472 3370 4632 7952 7757 10923 232 17202 
10000 5415 1002 3358 11537 11862 1807 4337 17756 
14532 7927 5841 885 15287 7080 1253 12384 12953 
13364 353 10527 15938 9408 3666 8668 16375 9900 
657 11282 15870 4102 10403 17628 6536 13624 15608 
6127 10933 17627 744 15046 3736 17258 8935 10384 
5804 4467 1031 757 17058 10775 14494 13745 1318 
11755 7661 11115 16082 3765 9682 15350 11294 15089 
11189 8259 10613 2530 10996 1654 6176 6150 11578 
10915 17180 1303 6801 11635 1886 16187 590 4841 
3500 15666 15861 2072 5567 4981 16848 13037 14478 
9349 10372 15820 12970 2263 12479 17026 9409 11093 
3923 10591 14629 9948 12933 2494 11378 9335 11967 
10427 14311 9496 15384 8642 15191 8473 8204 15338 
10052 13719 5797 12740 17439 11924 2 3455 203 
3202 3920 12720 9995 10655 2415 2458 7417 3269 
4761 534 10722 15276 15417 12143 13932 7764 4952 
1309 8914 140 3558 10152 6974 7905 6331 1209 
7920 8789 16351 6467 598 1496 12254 5153 4842 
15328 14827 11733 7540 15213 1538 16993 13724 14988 
12375 364 11422 7390 1591 3545 3784 11712 4108 
14770 1945 13831 17197 14387 13279 5745 4608 4346 
1296 12367 17265 1686 15981 13477 14702 13372 5780 
2353 701 2496 6000 4925 15685 2873 3678 2239 
14451 2264 3916 5198 5636 13522 16871 6381 6353 
15308 7509 6464 14246 12678 959 7909 270 192 
17257 8304 3020 6569 2242 2436 13551 3582 9566 
17219 5271 5167 5971 629 6679 10059 417 826 
7644 1962 112 2003 6686 7249 10502 953 231 
6183 8514 5730 10217 11073 5456 9905 5812 13127 
16954 1509 10623 7346 5785 14062 17812 8977 14953 
2193 271 14105 1906 6108 15956 7824 16345 4119 
5906 10606 5220 2080 17736 4400 3769 15803 5502 
1638 238 3970 8620 9059 7176 1437 3176 3673 
4468 13382 7120 6743 10746 3093 1949 1451 12864 
11296 17273 7529 7964 3016 12002 16166 6583 7528 
3956 9204 9662 14631 5319 17181 663 1784 16285 
10835 6192 12956 7277 8 13138 344 7741 9463 
17407 8218 5710 13962 16769 5571 8275 15099 9548 
17135 7736 6621 5411 13002 11770 5512 9903 15520 
12080 6791 6173 15920 11170 8741 15467 8041 7447 
343 348 2847 806 13492 10547 9413 16499 16401 
7594 3296 6910 3457 16295 15616 1606 10087 16738 
15060 6248 17251 11100 15538 3104 7498 4893 14482 
7354 9122 12832 12788 16294 2936 13249 1543 16400 
11484 881 12758 96 2031 6735 13980 2489 16781 
7259 16077 1056 15203 2942 13727 1993 3177 14487 
15189 15473 4873 15966 14637 6304 10777 2638 9960 
15061 12199 15698 17698 17839 15396 16772 1741 4429 
15707 14150 2022 7023 1093 11533 2620 2497 8854 
6829 13225 11084 15570 13883 17805 15652 15005 1739 
3524 12226 8331 16699 11751 17545 13687 12045 4230 
13034 11006 2988 15334 16539 14625 6328 7206 1909 
13067 8844 1147 810 12228 1673 16620 12738 9945 
13671 153 7222 11672 7493 3391 8422 7439 5542 
2809 9180 297 6018 17212 17432 10393 3552 17575 
8494 17540 6839 1222 10795 9875 1872 3859 6955 
1765 12736 6470 7095 6249 13867 17709 7074 14539 
1462 16782 14902 14954 13116 17009 3317 12129 1648 
12940 13176 10622 7735 4285 3576 10230 749 3822 
1527 156 2517 14724 13263 8787 8079 9103 5008 
16760 9842 10006 7978 1699 16672 17040 8369 6700 
1811 5638 13672 11972 3747 16172 2939 3326 10164 
14543 8133 14881 506 7112 16457 11846 17104 8479 
17451 945 2924 13139 835 4510 6894 5007 9385 
9925 11270 17433 511 9426 4562 13792 17513 15270 
463 10498 16925 9810 6366 5292 4671 17686 8807 
7592 8571 14894 10642 11874 11041 12653 2382 14388 
8793 13924 6309 10682 9642 5397 6837 4785 5700 
6639 4422 14106 1980 9802 16346 13437 16442 16149 
9984 12560 472 3463 13083 7451 13652 2838 13174 
11042 7419 9435 3844 4823 9029 9628 14942 10019 
2423 7321 15559 6107 6072 17717 8654 177 1436 
2099 15992 14257 6465 8302 6836 1990 4711 1854 
15523 9495 742 7916 990 12963 11914 2734 15640 
13280 4079 12009 16035 1647 6172 8516 5363 2367 
1783 10946 15261 14589 8963 4303 99 5044 17039 
8995 522 7157 8223 2723 1327 17399 8728 11338 
16342 1361 11030 6264 9481 6275 8212 9526 10610 
14523 11645 2409 15015 2783 9105 5607 5997 10699 
13713 13374 11184 13692 245 14897 17139 6560 14440 
5294 2702 10434 4927 5810 3283 6961 13939 7633 
7444 8783 6279 16397 10095 3950 3599 8828 16390 
17496 1051 17791 8681 13890 13888 3110 9006 11231 
5671 16606 17380 13075 8253 16719 10329 9468 11545 
6307 12434 1408 5809 1510 11901 11963 7104 2227 
9116 13134 3839 5024 17760 13670 7151 2188 14503 
7088 12777 13494 17332 4454 12212 11405 6563 17544 
7480 2336 14876 16673 13604 5349 4253 14485 3235 
537 937 10249 4625 10458 14479 9195 8384 2554 
16855 16551 14846 11235 14431 5176 8312 4071 5887 
5477 13548 9213 12743 8717 16830 1664 17755 2531 
5559 17817 3992 10771 4575 8284 12293 3550 11191 
17032 15487 3557 4548 15915 13634 14372 16906 7789 
15171 2045 8988 4312 10896 7984 10667 5987 11087 
4919 14178 12185 8362 17292 16498 10546 3378 12286 
16818 13626 2408 9137 3547 9519 6158 3446 11792 
9507 10584 2568 2752 13298 16052 11026 11389 12576 
15200 5532 3540 7836 7032 7302 6941 9149 11581 
17520 6233 11604 1077 7136 3204 12696 3100 9346 
7985 5931 8241 9031 4707 3385 7424 4250 1722 
4665 9894 16374 12270 14830 438 15887 1897 5388 
13808 11664 8196 6278 1750 4770 1468 2197 2236 
16785 2641 3816 17091 9651 2870 5988 4 1803 
7804 9969 16418 17784 7646 3835 8832 17073 9634 
11163 9675 3127 8774 8107 17800 16133 14293 9382 
17771 11871 1138 10641 4302 3985 15842 8593 16661 
4833 9259 2508 13054 5248 12877 3953 2222 15688 
7725 8525 13359 3717 6380 2887 9584 8863 4828 
4973 15812 12795 4131 6562 13164 9808 7740 17788 
6811 1549 10863 433 6966 15592 10778 11952 14457 
1853 9256 4584 9709 856 5145 1371 2926 8826 
9508 7746 13014 6740 15255 12834 9879 10760 4933 
8938 8427 15809 10265 9563 12050 13637 15802 4428 
16688 15635 6705 5984 15174 7036 10966 9593 4888 
7832 13571 6506 4139 17404 15053 14502 6440 5060 
2011 15154 4018 6701 12957 6164 12647 9933 2922 
8390 11037 501 17631 3238 16451 15571 7577 3525 
13583 696 3299 276 10159 17449 2422 11865 9575 
1030 1301 16937 2819 10077 2845 7669 5304 11206 
14733 15769 10855 16977 9002 15794 1328 10294 9856 
15960 17814 2519 6316 6095 11939 5691 3655 17109 
9937 15475 11714 1054 3988 12306 5655 12538 14654 
10176 8295 12682 9985 3339 10587 6931 3871 10013 
13700 5452 8557 4279 545 5463 17243 11804 14444 
1734 17580 15288 4396 4765 2672 13837 2102 14233 
2680 4577 531 2420 12980 11757 13611 17103 17061 
7601 16766 13445 14825 7573 1399 2268 15472 8833 
13885 1719 10664 17504 17780 15383 13605 8993 10545 
4039 624 4254 1977 5798 15299 15947 5042 15816 
17324 235 2400 11729 2947 5570 5806 17231 6047 
1378 6631 8702 10460 16579 1550 1631 6697 17008 
3070 13085 11614 2365 6529 1984 284 8519 17296 
16725 9386 12145 8420 14793 14574 15166 12487 5219 
9033 13289 9591 17831 4755 2166 4546 3798 17822 
16169 9590 3189 2486 17056 5603 13714 7607 1234 
4855 5918 10808 12529 2560 13764 14512 5245 1522 
17630 5029 8847 8153 14010 9953 8012 3165 11994 
17638 1537 6538 16337 4260 4433 13241 12319 11261 
8338 972 7802 17475 1802 12965 13407 7753 9186 
4954 14452 12415 1263 10298 15219 5387 14343 16792 
9833 17774 1490 9863 4286 13309 1121 4204 7053 
9134 6134 17644 4158 2330 3607 3877 17781 12913 
9231 9917 14994 12054 17050 6461 3689 6093 15135 
13878 11532 12263 16702 1703 13496 13227 3078 17466 
3010 495 3531 10284 3580 12944 2724 16236 14687 
2523 9793 8675 12930 7697 4249 13223 11633 1952 
11869 13183 10054 8545 15720 7267 4243 11920 8382 
9663 3710 17362 17596 5012 2195 8457 15372 12079 
10199 4389 8489 5662 7374 11611 4019 3031 7479 
1896 12670 12509 14025 16903 1319 7950 10635 14349 
3611 7279 10654 2765 6937 2701 5191 9399 12705 
5323 13008 3126 2737 5513 15633 15655 10563 8278 
5689 16621 7729 4419 1692 6996 5922 13736 17220 
9772 10391 14470 9601 5669 6970 11467 1709 6262 
8926 1385 5228 16055 7108 7695 3763 13754 11815 
3167 1519 13669 7531 4569 5010 9235 2714 14721 
5728 3096 10521 6534 12088 5672 12430 11667 9212 
9938 9255 11013 9606 4248 2480 16701 11155 10748 
3629 12943 14428 6147 17199 9609 11829 9226 3688 
13395 9457 9629 14705 13396 2304 13084 4457 14350 
13922 756 17597 13815 14073 8827 4651 669 11182 
13028 7109 3081 3489 1001 7280 4551 10037 14944 
11038 1824 7356 16653 2980 16915 9165 4797 8968 
17254 6029 14219 13506 15147 54 1406 12092 13169 
2547 10970 3133 10630 7768 13514 14741 3872 12067 
3193 16711 3185 17514 6870 17415 10535 15869 120 
11938 1681 5252 3430 12173 14515 15162 15364 1573 
17327 16323 10189 9736 6636 5381 16764 1767 8838 
3268 3730 509 17790 6355 2893 15428 13288 8056 
8953 3075 6828 6140 4727 17079 4521 269 12887 
15048 14295 8733 11860 5205 6635 4409 7827 16990 
15045 7331 16292 4242 4401 6048 12087 1000 3414 
8301 12394 5161 12609 734 12147 13234 9950 9040 
15919 6854 2786 4405 14264 500 9091 3453 1532 
7743 15298 3926 3099 6667 5405 9840 14360 418 
2550 9328 6487 11174 2735 8026 216 7823 9681 
12863 3929 10463 4507 12208 15398 17692 14384 3964 
15903 9054 5675 1736 13427 12310 13598 974 8624 
4672 11849 16924 2083 17402 7765 17842 5682 4208 
7014 12219 11640 14036 5534 13910 11178 5648 3052 
9347 5480 14462 6817 2781 2966 15321 10269 59 
5257 12202 358 6006 15526 4887 8853 12869 118 
16634 17283 2425 383 31 12144 6168 2431 4520 
13171 8039 12747 17481 4677 16066 457 13563 1438 
1639 2104 242 7188 6968 2225 9412 1939 17156 
16823 5361 5633 15141 3829 9217 13327 3841 7895 
9812 1836 16575 1938 14125 17014 20 1489 3544 
17137 2543 4690 7303 1415 5757 10570 7210 17669 
4109 16562 8730 11327 6479 8131 1187 6726 13541 
14767 10840 1711 8378 4754 1258 984 79 13528 
11562 11207 9504 921 5171 7181 13357 1688 2430 
14958 490 8726 7271 15697 3875 17424 4388 8020 
9971 5423 6460 12823 3139 14046 1799 2396 5284 
14856 16590 10925 15935 6297 13900 4035 2097 2827 
14616 6325 5005 7705 8676 1553 17546 8389 2054 
16803 12794 1285 16395 2077 2248 16633 10413 2218 
12110 14392 2837 7858 14049 13434 5186 9160 5303 
17367 11694 13387 1777 111 17315 6050 10376 5566 
16969 15877 7776 9120 5784 15853 10791 1091 17138 
17765 8423 4499 2094 10513 8814 2403 17357 15268 
7429 3566 3858 1808 2133 14883 14367 13780 16142 
6085 550 3106 15052 315 12483 11590 2111 16595 
7392 4128 8999 4581 2327 12724 1611 2767 16968 
16293 9558 3535 13898 11131 11501 3893 261 14800 
14224 5656 7810 11476 13365 15961 16463 12137 1708 
15989 7703 11746 13129 13109 2825 15997 13682 14781 
10592 8372 16594 16022 7438 17562 9359 9747 16414 
11315 1344 6241 6399 1089 10068 11956 1395 2929 
7811 2782 15730 5574 6984 11257 10441 5003 1232 
9861 9261 16623 16791 11431 14920 8460 8522 3623 
5845 645 2460 17025 3012 7298 2259 8861 17108 
10501 10264 16763 6511 16790 15737 1813 10974 11148 
17280 4612 13660 12056 5544 4560 13997 9904 12942 
4406 11669 14481 6767 4502 6478 17710 584 12093 
16168 1036 14017 3201 97 10398 8821 13835 12 
10078 11186 11354 2626 16707 4174 8729 7595 9353 
3973 8501 11122 7016 5479 11589 16347 14436 13683 
11152 11864 10069 17394 5310 10002 7799 12127 10784 
1770 14156 3240 7422 10365 1055 2992 3943 3147 
9843 13741 15982 17134 15544 2144 16445 13897 2627 
1042 16279 2711 3409 8750 5868 16679 3767 2205 
13552 3253 1915 13147 13629 12075 1764 10344 14063 
9379 14032 17484 6783 2665 4382 10377 17069 992 
15969 5750 17309 17746 15326 9895 11636 13051 4680 
13926 3157 10353 1340 907 6374 5609 12735 377 
1855 1420 3462 7282 12761 1087 14764 2179 9148 
2317 6773 8087 1088 8146 15043 7524 7174 3592 
10853 5946 176 4063 5419 1503 6784 14093 4670 
942 4847 1545 817 4699 5837 9071 15459 5705 
10982 8450 12321 5832 14326 12497 12466 6942 2757 
12878 14924 6517 6345 5610 11237 3922 17683 17142 
800 1375 14041 11548 7745 8595 4159 13804 17274 
8252 14748 15681 7021 15362 878 4917 12857 17637 
15132 6052 9745 13806 3601 1599 75 16352 10787 
15561 13049 13757 6776 7386 6523 14504 3065 6333 
10394 10178 17148 11101 4266 1311 11890 11357 10752 
5290 8997 8154 2424 104 8603 9300 13946 10429 
16828 2949 15097 17230 10177 8889 3645 13499 17031 
5128 10865 4596 15029 13242 4258 17673 9188 10291 
1761 12014 10930 7456 14185 335 2360 85 5117 
16098 2290 6179 8644 4530 9250 3170 6869 11194 
8492 12605 4252 11676 11752 4895 8657 13399 15512 
16037 2624 8401 11941 12154 10036 7486 9951 6247 
9696 13447 7154 5306 14887 15658 10612 11856 362 
1796 14122 3783 6194 10956 3437 9063 16576 1278 
3072 17288 13299 6387 2069 2358 2603 17591 1820 
10228 11882 14655 1475 432 13986 1633 5485 11961 