# vtk DataFile Version 5.1
Generated by LIGGGHTS
ASCII
DATASET POLYDATA
POINTS 17850 float
-0.00229157 -0.0269775 0.00137236 -0.00275233 -0.0256905 0.00128835 0.0139254 -0.0258669 0.00130813 
0.00986027 -0.0250649 0.00131377 0.0145864 -0.0235528 0.00129885 -0.0034587 -0.0239218 0.00134686 
-0.000716988 -0.0240706 0.00131378 -0.00254216 -0.0223456 0.00133953 -0.00142213 -0.0225989 0.00141399 
0.000368263 -0.0226149 0.00133402 0.00646651 -0.0229265 0.00128085 0.0114439 -0.0232636 0.00143792 
0.0125098 -0.0239202 0.00132633 0.0136907 -0.0230394 0.00126299 -0.00217055 -0.0211293 0.00156974 
-0.00171599 -0.0190435 0.00136797 0.00668001 -0.0216666 0.00136686 0.0117641 -0.0213568 0.00137615 
-0.00303988 -0.0189443 0.00129415 0.00342463 -0.0191358 0.00132899 0.00496394 -0.0189007 0.00129251 
-0.00320086 -0.017779 0.00131615 0.00926231 -0.0179733 0.00127981 0.0116272 -0.0191467 0.00132162 
-0.00573659 -0.0176724 0.00134621 0.0107418 -0.0180681 0.001335 0.00340171 -0.0175461 0.00131414 
0.0068462 -0.0180583 0.00136361 0.0152212 -0.0179398 0.00135631 -0.00455111 -0.0159442 0.00129211 
0.00126134 -0.0172493 0.00129379 0.00254075 -0.0164554 0.00128684 0.0107901 -0.0161942 0.00131884 
0.0152518 -0.016718 0.00130612 -0.0102213 -0.014677 0.00132153 -0.00135742 -0.0160047 0.00151771 
-0.0121574 -0.0151417 0.00134339 0.0117568 -0.0153197 0.00128356 0.0131969 -0.015683 0.00136316 
0.00262095 -0.0143566 0.00154809 0.0130387 -0.0145796 0.00129979 0.0184413 -0.0145006 0.00164414 
-0.0128371 -0.0117877 0.00129415 0.0119061 -0.0138699 0.00130018 0.0143241 -0.0136587 0.00133525 
0.0136724 -0.0127876 0.00126569 -0.0149603 -0.010826 0.00133768 -0.013127 -0.0106187 0.00136173 
-0.011931 -0.0111751 0.00135377 0.0121796 -0.0128622 0.00128126 0.0141146 -0.0116232 0.00133146 
-0.00903845 -0.0115419 0.00130101 0.00775639 -0.0110779 0.00139988 0.0130286 -0.0101569 0.00131879 
0.0165524 -0.0107386 0.00137271 0.00982518 -0.0104448 0.00133946 0.0110261 -0.010141 0.00137196 
0.0120169 -0.00951022 0.00131623 0.0141655 -0.010448 0.0013533 -0.00710323 -0.00912654 0.00133629 
-0.00449363 -0.0103623 0.00128381 0.0135122 -0.00915896 0.00132525 -0.0193212 -0.00847171 0.0016814 
-0.0172739 -0.00805732 0.00146085 -0.0153765 -0.0069524 0.00142359 0.0107692 -0.00840896 0.00135889 
0.0119431 -0.00827282 0.00126423 0.0100956 -0.00728121 0.00133053 0.0131592 -0.00739876 0.00128724 
0.0155298 -0.00767705 0.00133878 0.01068 -0.00589149 0.00134547 0.0138275 -0.00584209 0.00134615 
-0.0169482 -0.00532945 0.00130029 -0.0161545 -0.00464165 0.00138626 -0.00886165 -0.0050828 0.00145402 
-0.00532743 -0.00540977 0.00139355 0.0114433 -0.00517737 0.00126749 -0.017204 -0.00389896 0.00131877 
-0.0136637 -0.00297215 0.00134611 0.0115372 -0.00378248 0.00126731 0.0112022 -0.00272334 0.00133688 
0.0101612 -0.00194087 0.00133604 0.011504 -0.00150452 0.0013515 -0.0175972 -0.000915823 0.00136975 
-0.0140211 -0.00125915 0.00134599 0.0059016 -0.000544563 0.00128678 0.00891657 -0.000487125 0.00129611 
0.0105018 -0.000697707 0.001294 0.0282937 -0.000526264 0.00136226 -0.0178474 0.000341031 0.00136654 
-0.00232128 0.000689509 0.00130143 0.0114477 -0.000123885 0.00133912 0.0294587 -7.87459e-05 0.0013147 
-0.020599 0.00205092 0.00129668 -0.0138275 0.00183202 0.00132996 0.00823442 0.000845086 0.00127544 
0.0266457 0.000884166 0.0015121 0.0277176 0.00127222 0.0013637 0.00628959 0.00203405 0.00127059 
0.00761739 0.00230135 0.00128716 0.0260866 0.00275778 0.00136352 0.0268608 0.00195297 0.00140494 
0.0281261 0.00236045 0.00138009 -0.0066971 0.00306246 0.00133005 -0.00311286 0.00157675 0.00129063 
0.00385507 0.00279477 0.00131107 0.0123275 0.00223951 0.00128298 0.0290707 0.00332025 0.00137131 
0.00532309 0.00434043 0.00143613 0.00907209 0.00432758 0.00129467 0.0264258 0.00381378 0.00133653 
-0.00256227 0.00382917 0.00133857 -0.000953642 0.00444344 0.00133995 0.00126986 0.0045138 0.00127444 
0.00288586 0.00328249 0.0013045 0.0107803 0.00447726 0.00127228 0.0118475 0.00489492 0.00134158 
0.0275228 0.00391245 0.00131153 0.0290716 0.00447208 0.00132665 -0.00687155 0.00521211 0.00134827 
-0.00427801 0.00433527 0.00129679 0.00229099 0.00470754 0.00129961 0.00420678 0.00468981 0.00135637 
0.00604407 0.00540143 0.00127838 0.00705287 0.0052393 0.00128566 0.00988982 0.0055475 0.0013443 
0.0250197 0.00487235 0.0013612 0.0263478 0.00494239 0.00130195 0.0276113 0.00538232 0.00127655 
-0.0204494 0.00717821 0.00128817 -0.0146566 0.0064575 0.00132022 -0.00909067 0.00565977 0.00133955 
-0.00295545 0.00512021 0.00129894 4.53392e-05 0.00557672 0.00129208 0.00340361 0.00631784 0.00128945 
0.0089815 0.0061655 0.00129109 0.0287001 0.00627553 0.00133356 -0.0239449 0.00860747 0.00156098 
0.00204328 0.00673091 0.00133514 0.00448467 0.00648572 0.00129195 0.00725154 0.0065658 0.00130471 
-0.023014 0.0070944 0.00132509 -0.00596295 0.00718448 0.00135275 0.012697 0.00802905 0.00129109 
-0.0270758 0.00892488 0.00141798 -0.0222206 0.0103251 0.00134485 0.0189959 0.0096756 0.00133959 
-0.0138993 0.0102911 0.00132518 -0.011659 0.0102313 0.00133782 0.0169289 0.0102844 0.00136213 
0.0116609 0.0114171 0.00137962 -0.0156633 0.0116876 0.00136397 0.0130272 0.0118045 0.00133536 
0.0173832 0.0162775 0.00143687 -0.0235266 0.0140482 0.00180776 -0.0136689 0.0163599 0.00130273 
0.00916652 0.0166623 0.00129694 0.0189512 0.0169288 0.00135189 -0.0211537 0.0153472 0.00129834 
-0.0144435 0.0170931 0.00131166 -0.0133112 0.0175258 0.00127439 0.0112886 0.0174285 0.00130794 
0.0128557 0.017515 0.00131645 -0.0229661 0.0166926 0.00165979 -0.0169359 0.0175708 0.00129125 
-0.0139409 0.0182921 0.00139034 -0.0241826 0.0166699 0.00145484 -0.00974844 0.0184916 0.00154195 
0.0138809 0.0183229 0.00132918 -0.0146493 0.0195004 0.00136476 -0.0124226 0.019205 0.00130475 
0.00372049 0.0184466 0.00215277 -0.017591 0.0198867 0.00128717 -0.0165958 0.0206939 0.0013408 
-0.015214 0.0205231 0.00130389 -0.0133912 0.0202637 0.00131466 -0.0114133 0.0198541 0.00131065 
-0.00927002 0.0200156 0.0013281 0.0072658 0.0202619 0.00130114 0.00922142 0.0203834 0.00134224 
0.0150993 0.0204911 0.00127882 -0.0139759 0.0219964 0.00134233 -0.0117872 0.0211943 0.00132876 
-0.0102026 0.0206091 0.00129536 -0.0088046 0.0211739 0.00132359 -0.0181328 0.0217045 0.00139218 
-0.0128308 0.0212306 0.00128757 -0.0108005 0.0214233 0.00160815 0.0053666 0.0217441 0.00129585 
0.0110004 0.0218055 0.00131907 -0.0130739 0.0226439 0.00131205 -0.0102828 0.0224062 0.00138233 
-0.00895452 0.0225899 0.00131447 0.00904366 0.0222112 0.00128881 -0.0118254 0.023404 0.00132027 
-0.0087551 0.0236942 0.00127129 -0.00704012 0.0227334 0.00126909 0.00768984 0.0234813 0.00131024 
0.0177219 0.0234443 0.00131063 -0.0148354 0.0240711 0.00132068 -0.0125983 0.0241767 0.00131289 
-0.0108115 0.0238629 0.00134124 -0.00671846 0.0237489 0.00133826 0.0168625 0.0240893 0.0013303 
-0.00999035 0.0245161 0.00125468 -0.00654425 0.0248847 0.00134459 -0.0117515 0.0258075 0.00129103 
-0.0100317 0.0255703 0.00130574 -0.00803937 0.0255264 0.001317 0.00980258 0.0249939 0.00134543 
0.0140984 0.0250113 0.00135124 -0.0123998 0.026601 0.00126402 -0.00591109 0.0262064 0.00127752 
-0.00447788 0.0259856 0.00131782 -0.00234517 0.026217 0.00133189 -0.00657074 0.0276463 0.0013689 
-0.0040458 0.0271812 0.00129244 -0.00915372 0.0277511 0.00138325 -0.00797145 0.0278782 0.00128289 
-0.0026035 0.0275136 0.00126563 -0.00687766 0.028668 0.0012691 -0.00482337 -0.0289834 0.00182334 
-0.00372006 -0.0290745 0.00145697 -0.00100951 -0.0291082 0.0017901 9.97725e-05 -0.0293391 0.0013177 
0.00101065 -0.0291561 0.00195786 0.00250651 -0.0291692 0.00190057 0.00428619 -0.0288023 0.00212612 
0.00542403 -0.0288125 0.00179271 -0.00755714 -0.028089 0.00196544 -0.00576799 -0.0288002 0.00234175 
-0.0022295 -0.0285587 0.00131269 -0.00124604 -0.0279158 0.0014049 0.000547725 -0.0281159 0.00146354 
0.00176842 -0.0282372 0.00193903 0.00662323 -0.0285637 0.00175474 0.00860726 -0.0279613 0.00151547 
-0.00805623 -0.0274511 0.00133062 -0.00685703 -0.0274005 0.00239143 -0.00514057 -0.0278672 0.00169241 
-0.0038887 -0.0277765 0.00169935 -0.000311559 -0.0271884 0.00148405 0.00181506 -0.0272338 0.00135944 
0.00399651 -0.0274929 0.00204076 0.0105044 -0.0274023 0.0013651 -0.0100427 -0.0276234 0.00172995 
-0.00896745 -0.0276463 0.00182228 -0.00585342 -0.0267863 0.00134698 -0.00453862 -0.0267456 0.00133613 
-0.00334985 -0.0266165 0.00141518 0.0061966 -0.0267386 0.00170451 0.00805604 -0.0270647 0.00211712 
0.00948739 -0.027289 0.0016371 0.012749 -0.0263867 0.0013556 -0.00945906 -0.0264003 0.00276145 
-0.00121965 -0.0262674 0.00144872 0.0028907 -0.0260263 0.00197428 0.00499671 -0.0256685 0.00138988 
0.00922708 -0.0262127 0.00139207 0.0108546 -0.0262206 0.00209221 0.011577 -0.0263533 0.0013132 
-0.00765219 -0.0244689 0.00277571 -0.00660236 -0.0247911 0.00180765 -0.00525795 -0.0249947 0.0016963 
-0.00405884 -0.0250163 0.00160611 -0.00218759 -0.0251155 0.0020103 -0.00120494 -0.0251774 0.00129162 
0.000558235 -0.0256128 0.00131933 0.00166099 -0.0254038 0.00131904 0.00276448 -0.024903 0.00155602 
0.00388343 -0.0249159 0.00167797 0.00583138 -0.025102 0.00199076 0.00722418 -0.0254808 0.00199331 
0.0120588 -0.0248224 0.00176861 0.0148733 -0.0252511 0.00150096 -0.00577182 -0.0241747 0.0022737 
-0.00183227 -0.024118 0.00134566 -8.27863e-06 -0.0247548 0.00168924 0.00155703 -0.0242937 0.0013771 
0.00484693 -0.0245462 0.00134128 0.00682356 -0.0244977 0.00133197 0.0110174 -0.0253356 0.00143504 
0.0133316 -0.0248898 0.0015045 0.0159092 -0.0247734 0.00152337 -0.0132143 -0.0235412 0.00287661 
-0.0082018 -0.0227483 0.00256865 -0.00644877 -0.0232723 0.00217119 -0.00538426 -0.0230308 0.00230744 
-0.00439152 -0.023332 0.00185386 0.000440574 -0.0237083 0.0012795 0.00367151 -0.0235465 0.00148351 
0.00960394 -0.0245042 0.00219314 0.0106401 -0.0242833 0.00130591 0.0134328 -0.0237331 0.00200428 
0.0142757 -0.024387 0.00182598 0.0173772 -0.0237413 0.00138229 -0.0170994 -0.0236894 0.00314848 
-0.0143708 -0.0225005 0.00294793 -0.00338061 -0.0228957 0.0017245 0.00159843 -0.0228575 0.00140414 
[...]
POINT_DATA 17850
FIELD FieldData 6
id 1 17850 int
11328 12609 11421 15492 11084 8495 4559 16142 7699 
16522 12029 3344 15011 6854 10840 147 4491 7488 
4520 8316 15298 10164 17156 418 14551 14490 14982 
6367 13225 6351 12587 5757 9924 11100 4588 6843 
14757 5749 7437 7555 17573 17579 17025 10924 14667 
6836 14476 6669 8546 11888 9105 17471 2475 10995 
13660 1814 1268 4711 3933 17755 16588 3155 12235 
6264 6965 1854 12455 8701 5179 2879 15592 13641 
11660 16649 14116 17309 17843 5977 9625 6506 14507 
14457 2426 14990 7633 17103 4913 11390 7375 15337 
17609 7832 17784 17773 11776 6728 17288 14040 12306 
17058 9983 6063 10530 10179 17006 9894 6711 2601 
8091 5570 14786 3178 8534 6705 10977 6865 276 
9659 4199 10553 4720 16304 13441 12479 17349 14311 
14142 10944 12772 5554 5357 293 5354 17339 17243 
11143 9650 14542 16004 12343 9719 2864 14486 12792 
12473 7717 12220 17650 2748 14889 2014 2778 9152 
15978 9600 5596 17254 12067 10932 9732 12589 622 
15621 17272 5863 17662 16992 1781 9147 1357 5576 
11614 11307 6274 11017 11120 3613 5384 5586 8712 
12072 8351 11610 5654 14788 1687 5172 5153 794 
14205 15127 1300 9571 10780 14468 12432 12562 3847 
17046 4307 4984 14861 8749 14381 12513 8111 6133 
14857 15169 130 2012 17716 6748 10786 3989 8604 
17143 14791 12387 17639 6632 5175 1908 9987 9840 
7771 15060 2113 132 16742 16205 15543 7885 15679 
7183 2489 14313 17809 12573 4090 11570 15477 16447 
15093 10790 17357 3841 12765 2545 2074 17481 13257 
16381 14112 5265 16910 2406 7723 2550 11749 15616 
10732 4811 785 9054 3438 5895 15136 14813 9941 
16368 2168 15167 15932 7535 8213 10718 6215 12566 
10028 2775 13245 13018 10586 4993 14392 10622 4474 
3492 12052 15282 734 12310 4228 17839 17545 11382 
11379 6448 3696 14265 15727 126 16546 142 4881 
5008 12832 9448 7199 14158 9573 2781 5697 5961 
6248 4534 5519 14539 544 17668 17299 9135 11821 
1461 15966 5161 16400 3672 4873 9504 11069 4780 
11606 358 17759 2488 1667 304 8488 6487 7978 
15005 16518 11751 13472 10168 1725 17253 466 15928 
9091 12011 3940 5351 13577 16984 16965 5969 9217 
14006 12435 10838 11126 1659 5449 11450 14046 6018 
10090 13316 8854 14173 3999 17490 10532 7222 2618 
15580 5134 15102 1739 16410 7259 707 10455 527 
15238 8624 14153 17486 7588 12896 10499 12226 13231 
8853 13142 6297 17051 13674 2511 13462 7503 3177 
9003 10549 1939 6700 1708 9099 16118 5505 11256 
16749 4989 10230 11973 3042 11619 518 6085 9684 
3290 6125 12517 16157 15846 7218 13330 17148 16095 
10682 17198 7106 12590 7932 14597 6321 16902 17138 
12160 12698 15835 6244 16436 12947 15576 8496 3350 
13146 630 15034 9518 12611 15268 16933 8631 13465 
8695 5053 7363 12402 1430 10190 6894 431 8814 
3623 721 13625 12669 8793 11904 2159 955 14118 
6105 9440 15706 15052 143 6472 9574 13900 16371 
12178 13418 13895 15953 3714 497 14404 8729 13129 
9810 9860 6689 11065 15105 14469 4270 11366 2572 
12009 2638 2861 4716 13560 10353 8005 234 8313 
6639 4820 3304 17165 11476 16346 14955 8982 8060 
14956 5599 4079 1082 13859 4070 932 7649 4560 
9038 10919 1408 17476 13419 7145 16379 9160 15512 
10355 7419 6237 14636 4823 11784 12373 5881 10637 
10546 9420 3065 168 647 8783 6405 11315 7984 
4604 9101 177 15497 7476 3001 3357 15897 16407 
16170 17151 9933 421 2337 710 7124 9353 16243 
5306 17601 2119 2574 4127 4325 4556 2729 4880 
3583 7480 11037 17768 14223 8795 4102 15728 17267 
10068 14768 10458 11725 12042 5997 1279 16146 5444 
5544 9607 14986 444 1898 1528 7880 160 2132 
460 11862 12314 4576 2975 14504 6150 6213 883 
15615 15572 14794 14532 13923 13926 13049 8406 6841 
14326 2602 16526 8456 13963 1297 12780 10104 7048 
6784 8441 4475 11963 15171 14016 17817 6501 4339 
1853 9645 11777 3599 15084 17827 9281 12568 10264 
4402 14926 10760 8284 8312 11587 12497 17634 9709 
7903 8168 10979 8104 8404 7466 3235 537 9634 
10249 3617 989 14481 942 926 9149 10679 7036 
16900 15040 14708 7745 11941 10093 3278 4681 10259 
5810 16542 2508 13311 3381 6179 15081 17677 1494 
9216 6966 657 8520 2479 13653 12480 15822 4051 
17437 17057 7710 16130 11957 9037 12006 13148 6980 
15842 16196 8593 17721 17459 5177 16904 5985 14847 
9017 12648 4453 14751 17487 3919 2260 15780 7289 
4018 5256 4676 9139 8326 16746 5988 498 1175 
1177 9377 10159 15812 15241 11730 320 15318 5114 
4799 8474 17480 2362 7434 5440 11884 9892 17512 
5299 11195 6407 8724 13853 11164 3368 5929 5798 
14215 17170 6603 11918 11635 10966 5548 14418 8302 
8427 15664 17095 7396 3072 15637 12386 24 15721 
14354 3257 3949 2708 6656 7029 910 4933 3616 
2642 7052 2800 16831 14391 12548 10510 15571 10664 
14380 3505 11498 3666 5998 16119 8390 8500 8481 
17261 1123 1774 1742 13356 2102 2680 3540 4368 
16566 17623 2171 9717 7561 6872 14494 4407 17404 
12368 15290 6551 13729 3983 3486 9414 15722 10443 
4131 5691 4482 9136 16462 10384 9061 9688 4111 
10775 15201 1328 178 15408 13369 3440 11345 10212 
3121 2085 13363 10332 1228 4036 11217 7409 122 
6911 9512 6078 10235 15960 11510 4932 14095 14698 
13637 15154 17587 747 7943 11673 17689 14654 12962 
1318 4841 1734 4756 13297 11153 1792 3435 3159 
16183 17788 5886 12970 17340 12682 3887 17449 12248 
9175 1186 14855 14021 11464 7002 4995 11998 14558 
4416 15564 11885 10254 15692 2771 4017 17780 13611 
17807 3192 13745 3202 12732 1907 1377 683 2911 
10136 1128 6098 16638 7305 13423 15257 7192 10039 
10782 15217 15748 10288 2530 9052 7547 11352 15046 
13675 2338 3019 13095 7608 7355 3050 7982 9784 
5316 10025 10986 11921 16565 10326 13764 14378 10812 
2203 7358 17664 1936 15149 6953 13972 17035 11226 
12021 2420 11791 16016 4834 9386 9009 13477 6790 
15861 11209 7680 16283 7193 4956 9515 12155 12132 
3026 2828 14254 1387 8269 13693 4259 11863 5033 
9272 5324 13085 8653 12032 6696 8703 17580 17554 
458 13232 1622 2540 7360 10781 17688 13644 12638 
9862 1757 15336 15176 13647 996 12715 10213 6379 
7970 16437 4531 14554 8339 5360 9373 6917 5090 
5872 12297 12291 4204 13064 1723 3652 1654 10098 
12670 795 729 15917 14092 3247 6572 12090 17097 
17059 15759 16725 12811 11323 13766 1145 12608 5030 
15313 17627 16643 11557 12309 16027 15645 1628 4426 
6238 8393 4731 6827 4994 6182 8424 3763 231 
13774 13826 1156 3553 12084 10121 15784 3731 4290 
2369 2746 16922 7108 13736 13063 193 14591 3948 
6988 2502 6121 1977 14619 790 11844 2619 3464 
14308 14652 16161 1362 7251 10426 16091 5688 8095 
11524 9374 10240 4046 14929 355 15807 16535 16107 
4718 4719 17256 7851 17568 5109 12064 1984 757 
14439 7381 1603 8881 4188 6909 15209 3709 15894 
11038 1579 17466 11655 15351 512 12382 15956 11737 
15554 3970 1638 15240 1309 8392 15443 16080 2071 
352 3806 8508 11756 8465 2761 636 11810 571 
15401 5502 17072 2753 3584 1207 11887 3730 16848 
14998 9609 14242 7762 3631 3088 4846 2566 4343 
13187 658 9877 13127 7149 3621 16242 9263 7855 
13934 5926 1144 15190 3267 6259 5459 3197 4298 
14678 12592 9966 150 5993 15166 7384 17371 1496 
1559 12855 9204 11897 2570 15775 7207 11796 2263 
11002 17818 14309 8276 12678 7346 14262 4317 13878 
8524 398 578 4386 16034 6426 4703 8289 5938 
10182 4031 10623 8431 12389 11158 7128 17107 12392 
1167 365 11018 11712 12501 2196 10469 6925 11407 
8464 6920 4039 17268 15164 7741 3921 7064 2183 
14732 6140 15157 5820 5312 2610 6211 13224 7339 
16607 10472 7812 4521 8347 9082 3482 2847 10719 
8357 6768 12342 16954 2804 14657 16323 6117 6791 
11442 14394 7286 4177 11170 9238 8355 17273 3268 
5515 11679 17613 1521 11203 1976 16515 447 3359 
16961 12436 3961 1696 12002 6985 9460 12943 15937 
6490 12088 12494 8350 17079 4714 9621 7331 6173 
11843 16819 5169 16769 3719 3598 17605 3530 10547 
1918 16314 3173 1621 8499 12324 10650 17528 11841 
610 12730 8411 4727 9878 3823 14086 1160 9683 
11119 11157 8122 8601 2345 15476 55 7711 523 
4276 15048 11471 14375 16256 8951 8823 3654 5619 
13781 6493 12087 471 8852 11347 9741 5217 13618 
10397 3496 11866 8566 9657 12374 4941 14536 1754 
4733 680 4251 6254 16865 17048 11813 11486 1304 
1643 11359 1543 500 1173 15796 5276 15919 8051 
5774 16295 12788 8933 78 962 8280 2098 2005 
12632 5238 10124 16884 11360 1606 1164 1601 1397 
15062 16944 11273 8941 5146 14199 17071 15891 6130 
7759 4672 12481 735 8538 17390 12315 11525 17499 
7450 5492 12147 3457 16556 2836 14020 16781 5858 
16240 10744 9122 15016 3658 6735 9330 14487 5202 
5682 173 8966 17131 8689 2007 3713 12663 7765 
10041 1000 2513 16782 10556 16662 11873 1294 13470 
14192 10174 8989 16025 11654 6726 5407 11818 3471 
480 4690 14012 15365 10428 6006 6425 5318 14360 
9940 9740 2022 6479 9553 16339 10183 2101 5143 
12916 15400 10916 15570 8478 11972 6296 13039 2851 
16431 3150 8788 6304 9232 7134 6804 16878 14113 
16439 4146 15207 17448 17402 13687 11431 8844 3884 
5558 5605 7095 17295 9660 10442 11246 12180 16575 
699 11849 14382 13980 16620 810 6745 2262 3436 
17805 2759 6586 11427 7239 13067 1741 5272 14291 
3301 14882 5005 15583 5648 9485 16737 13539 8583 
14358 2920 3590 6328 11327 11553 10815 13867 9073 
7438 3869 14543 5725 13910 3092 7796 16159 12360 
14713 8039 6847 9087 12747 11816 9012 1489 13050 
8285 10807 15853 13262 7399 9759 995 6829 17669 
16687 4671 9558 16192 11672 1455 10837 5695 16258 
14778 4705 14811 7862 884 7316 7546 2055 17828 
11336 1766 16320 8131 11207 14498 9350 3686 15480 
153 3756 2744 5634 3524 10423 6451 9064 3947 
816 14088 14150 15495 3764 921 4405 4661 8142 
2762 11572 12245 2123 7210 13482 11353 15160 3106 
16126 8654 1680 15424 14933 8055 17571 15434 3962 
13032 10019 5546 5437 6323 606 12070 3429 5036 
9385 4685 17686 11229 760 6488 15325 2774 8318 
2024 2229 9372 12881 15985 13235 16405 10969 10416 
10769 17028 14419 16365 16457 17399 13529 5772 6906 
9297 7250 14143 9426 1797 11917 1225 2720 1699 
2914 14157 1617 15569 6915 6096 11568 8364 5748 
13487 15423 10975 6114 6535 17408 8797 10773 12345 
15980 2500 17717 1990 11148 15021 14406 9315 11906 
1555 10368 4253 2000 3194 11460 13787 6541 14107 
13884 9563 8118 5469 6992 9748 15963 2849 15451 
13901 10987 8377 5508 4465 14171 12199 723 3091 
11872 2626 5358 14634 6815 6781 16594 14578 1036 
8502 286 11695 12340 2218 11738 16914 13672 2383 
9867 2711 3726 9405 671 6976 17806 6275 14231 
17412 16042 1557 16245 8855 8516 5363 3612 16418 
10642 12826 3497 10990 17292 4320 17152 4445 11803 
4267 3706 6626 14210 10959 5638 14964 12050 11753 
4548 2991 2302 4963 11319 17022 17313 8250 11847 
15908 12665 13510 17075 16907 1647 15884 10263 1298 
7127 4274 17532 17116 4174 1122 9543 3854 9587 
15969 7995 13893 17727 13683 7220 4665 3511 9963 
6194 1281 7038 4308 11338 5834 15470 17389 5845 
1830 6153 12037 9309 4432 11758 7173 4973 9002 
1063 9575 3712 16802 14781 4644 585 10290 6357 
1320 16525 11278 11736 1080 13678 12244 9613 15029 
17039 10896 10244 4612 8603 15962 2632 905 9913 
14162 2405 6155 6979 10918 14906 3236 11233 16129 
6685 7869 1253 8460 6420 838 15437 8221 12195 
8044 2665 14879 12161 3467 15885 13569 12870 6941 
2968 16032 16211 15198 16707 342 12723 12201 15352 
7474 16082 7789 373 3593 16213 17320 15192 12085 
158 14431 2255 12075 2336 16444 11386 12576 3028 
14060 7790 14963 6560 2590 646 9731 13076 13755 
1472 9614 6233 9021 5565 15561 15091 6198 6826 
6806 16098 2059 2652 10327 9696 6517 9806 2461 
17332 11703 15350 16360 2817 15234 9300 6723 6071 
1567 8942 11024 8124 5963 8717 10448 522 4525 
9944 732 2444 10933 7797 1169 133 1074 10581 
5908 10388 9869 13993 10713 16182 17835 7171 3472 
5419 16666 17222 10375 8340 5738 1112 9408 11093 
2675 2363 1002 8303 15080 8198 16445 5590 2457 
10057 13808 948 10026 14816 5701 3361 16906 11194 
17108 17124 15514 13861 8015 5378 16460 3348 8195 
11840 14895 956 4045 6577 11880 12393 10861 14699 
13175 10132 14284 6811 14590 16555 1054 16683 14508 
13351 5840 2922 1864 7240 17010 560 8240 5096 
11403 5967 5937 9027 9227 15640 6332 11734 13266 
4467 6486 4364 9011 15694 2668 696 11865 3550 
11952 1353 15765 8092 1313 2252 9873 10096 16751 
14969 8856 12308 6196 4729 16203 5165 9441 11082 
1053 4888 6884 8295 15287 11132 16767 12384 9577 
247 2584 7686 16215 14203 14066 1820 5653 13456 
15263 5945 12980 16021 16375 16005 7233 13903 5567 
2616 903 1034 5813 16507 3636 6838 9252 6846 
17737 546 16483 12213 11583 14449 7899 16857 7570 
519 10234 10577 15180 6989 8399 4619 1789 3330 
5690 5013 15589 11629 10875 374 10843 7172 7069 
14455 9682 686 13681 9565 10348 4951 3923 15446 
12774 7693 4517 6845 3284 6883 13120 6972 7344 
16817 6235 8869 12433 5827 14186 15383 14250 7408 
7012 4742 12666 3427 11331 17089 15116 5491 10733 
2422 4067 14425 11159 11651 13824 13173 9538 12191 
10525 1719 12472 3804 16187 15666 17319 15030 14825 
4141 14506 5178 14268 5339 1593 14983 12008 4791 
12711 15781 7746 9639 10313 14347 8605 12749 6016 
11469 17830 16406 17061 8993 10545 14444 8433 2850 
9183 7217 15916 3327 17463 14290 15333 4689 3383 
16559 1856 16713 6654 3377 12076 3380 7066 13956 
13619 4706 17106 9635 14429 11615 10312 8947 6252 
12726 6779 14769 6786 4447 2341 17439 16503 12705 
8668 6820 15508 5933 13558 2875 9474 12967 12350 
16796 13716 13023 8016 7981 885 8863 8471 1886 
2072 10996 3056 454 6284 3474 4875 5259 11459 
17743 16276 2646 15934 1600 8068 12104 11985 2140 
2295 9835 15306 14299 16349 14538 11710 11933 14681 
14773 17504 9666 13605 1146 13551 8287 12372 12651 
1458 15870 14013 8314 2884 14977 5506 4572 9498 
12398 16646 4012 11227 6529 10163 11790 9220 7155 
7920 2450 15535 4092 3963 16663 17455 9697 3794 
7065 7764 3793 16730 13947 13214 288 12847 15614 
13885 13380 17537 5631 3272 7510 14702 12944 11611 
2995 15006 4229 7864 13951 14459 8083 9606 12952 
13664 2548 9918 12734 17126 11794 6643 6183 14437 
8975 8167 6644 14584 13635 8756 14930 10449 17831 
3988 10659 12740 9186 1835 1946 13355 15384 14731 
16519 10217 951 7067 1634 13226 9465 2930 12077 
10892 387 4678 13719 6679 7518 5009 7909 12038 
2013 9457 12701 14939 4803 13053 6648 4609 11059 
2228 6765 12128 5323 14630 7070 14574 6400 2676 
13840 875 8228 16692 999 76 1432 12557 17141 
5812 6802 9112 2932 171 16345 4408 10021 779 
4634 274 15650 13534 15479 4095 16554 5121 2831 
17041 14874 1896 12933 2470 9059 3234 16433 17724 
16800 1753 5711 10191 17265 7695 1001 14362 1509 
7824 12430 16398 12492 10321 9596 2790 16624 6236 
16296 7728 7550 2714 15803 14246 11355 9438 11895 
11039 9874 4500 3111 3249 2003 17213 10638 5095 
6132 5028 16303 15810 10184 4627 15831 1900 1302 
2244 13042 446 740 6611 485 1769 13712 5790 
263 17556 2001 305 11759 15516 12687 10521 8149 
17242 2737 7897 318 5229 10734 1824 3509 9728 
2245 12968 7277 16711 7041 16281 3376 3563 5592 
4911 12475 6766 12707 16402 9262 3080 5439 9392 
6212 14295 5715 13343 11243 1199 5122 8182 6067 
15182 4132 13296 7538 9463 5661 7594 3872 8968 
14132 282 611 266 7101 8637 5427 5108 9043 
12135 700 3515 6649 13613 10238 17763 15662 3741 
6554 11349 5398 10935 2187 11648 7780 11001 16523 
11409 2487 13768 10601 5247 2081 494 5694 5916 
5999 10552 9 2312 11393 6458 8255 5763 1570 
567 806 15123 4928 5591 14612 17136 9653 11641 
2126 12616 10409 3252 16401 10204 4866 12683 10242 
17519 4244 4899 7827 848 1512 12887 4058 9393 
4236 7225 17795 7808 10705 10585 7840 15045 12325 
8024 7329 5614 3022 7527 7743 8902 1590 13710 
16934 12168 12457 6416 13516 10001 8026 8737 6778 
1895 4484 10032 3836 216 14281 2965 515 2657 
2925 6141 12408 1532 6288 16860 1329 11078 1276 
16112 13842 7987 5465 9794 9236 52 6741 8883 
5405 14913 2031 6372 13278 16434 8063 4490 11562 
5374 6910 3011 11789 5675 5039 9957 2791 14125 
5048 5622 2786 14384 12869 17541 10954 3926 7063 
10834 406 2917 16872 17286 2425 7254 1648 13785 
15968 285 8766 17804 8809 7656 8363 17297 4717 
14286 7898 2473 1141 666 2018 15072 2735 12482 
16370 10464 12960 11477 16740 5051 4754 7206 13308 
8181 3479 13971 10876 2474 12394 9090 6261 12061 
7947 504 4390 4429 5542 3338 3866 11298 11252 
17245 2837 10233 1695 3052 12979 11893 7698 15881 
10261 10142 10285 13211 4557 16950 14420 1751 6794 
9102 631 415 1004 4887 1190 10418 2446 6795 
15077 10149 11113 12688 10410 12555 6456 6949 7074 
166 5924 12545 1732 9352 6901 16298 12026 15707 
8787 7822 8484 12622 5092 13022 7751 3651 13139 
14049 1872 9812 9960 5341 14084 13823 13865 17036 
15526 17379 1500 16357 6365 8721 1187 4404 10200 
11940 14604 11552 15551 15828 4358 11484 17377 15770 
15430 10714 3369 65 10568 13941 4868 2924 10006 
1968 11301 2057 17159 3964 2742 8726 13821 9604 
12110 15321 17049 2388 1963 5423 2339 4168 11529 
6050 2852 7859 17396 16958 13043 10203 12107 6039 
7116 5855 5574 9014 4115 13924 1232 17562 128 
13659 5786 6094 14596 13723 6396 14950 14106 13667 
17021 3480 4362 3032 11962 8443 16545 11425 5838 
1140 5305 7257 4515 4544 9649 15189 14704 151 
379 261 17433 7392 16104 6014 11258 668 14325 
10463 6873 5386 3102 6667 1688 5301 15788 4441 
10889 9412 14954 8093 1089 1980 7427 13103 12939 
1180 15910 4021 14069 11257 11726 8683 14696 14649 
1756 4721 11116 117 1685 4874 7368 7592 7604 
12502 10619 16814 14877 1420 1395 11720 9130 12101 
13721 11647 251 7112 886 9005 13863 16611 11592 
7203 4234 2176 777 4816 4807 14897 1670 6995 
17255 5747 4448 2838 3049 17829 9880 13337 16396 
11169 15933 8960 8212 4649 5795 2988 7975 236 
13606 4026 5403 765 744 919 8645 6435 5275 
6880 15747 15373 15073 2734 4562 2929 16022 1887 
7955 10501 11329 821 2499 6530 9567 2463 5222 
17280 11452 4422 14800 1752 16673 13582 11445 16097 
14224 13161 1342 3873 4643 2656 10529 6056 9303 
904 12179 13174 17164 2046 7910 1783 4583 16018 
3226 11914 13107 992 1071 7121 12014 4077 797 
6767 8859 16791 791 10592 8152 10477 11874 14839 
7326 4767 15976 13463 3462 10209 4365 7348 145 
8199 7908 4595 4312 6837 10369 12165 4748 1641 
14183 9802 3753 14209 7088 11778 1025 3812 5454 
12982 17400 3152 8715 9626 15457 16293 1138 3985 
5453 1917 10351 13182 8635 16199 5864 5646 15499 
5441 1510 17031 12282 9195 6714 5713 17083 3816 
1915 11196 7169 3446 13986 15595 5950 11566 584 
1937 10265 15856 13286 1401 16193 5390 6224 15186 
6610 8872 17791 15915 3716 640 608 4792 11364 
5317 15559 8956 8657 12277 6291 7730 10307 14735 
5310 13141 15882 13544 6580 16367 2815 13795 13072 
11956 14388 1829 7319 13767 10232 14942 14479 8916 
5919 10228 10173 10778 17084 11537 5814 10002 10344 
15739 5129 856 7784 12753 8845 10178 10497 5671 
5065 16154 5936 6511 10176 6775 2855 4309 12293 
14615 1340 10704 9769 4553 1627 16941 7377 8612 
10559 9999 16739 13997 9647 14249 16723 17194 8782 
1055 557 2844 16318 7469 15122 3335 6861 1182 
12452 987 12541 8476 9700 14593 9133 9795 3110 
1503 11184 16202 17683 15586 8532 7157 17091 1047 
9881 14492 9494 727 3867 13930 525 12528 3346 
2769 4770 4423 13310 15013 17678 232 7650 13020 
432 6065 8515 5485 12964 10764 3204 5180 5424 
7262 8577 7119 8979 13852 8579 13172 11664 2901 
16086 10596 7936 17382 9584 15755 15043 1229 6882 
4282 6573 1106 13494 10394 2562 690 13242 15433 
1303 11699 16362 1475 16867 5537 13179 10311 260 
15053 9256 10584 13679 6156 17215 8743 1292 6609 
73 5902 4886 3227 5293 11605 4197 1941 3299 
2360 2750 4955 6757 6803 16890 3180 7071 1402 
12097 5559 15475 235 6164 12833 103 8330 15601 
7322 3337 17588 16642 8613 5304 7154 2451 346 
13509 15648 3082 3738 9737 15174 17816 14402 4962 
5356 7039 5347 394 12752 4304 6463 8540 7740 
3594 16040 1652 10759 5415 2177 2887 15677 9400 
5734 2681 8531 10012 13026 3736 17657 17029 11145 
114 5343 5884 15113 13726 14663 501 6682 10865 
3170 2045 9275 7603 3525 13624 10328 5782 9305 
746 10792 9472 15680 10474 11034 6139 15918 4088 
14610 12152 11232 8875 12171 17465 17225 902 531 
13453 7224 16993 6831 15205 5050 10357 1580 7971 
12438 5400 10890 5120 256 2127 5704 12114 11939 
15307 8935 6317 3456 12776 16758 9115 3079 15608 
5754 7081 2862 880 9593 8188 14823 11055 2721 
17301 4393 2581 1604 8617 15299 11365 14080 16688 
8833 3292 6265 13850 7580 15791 4990 9344 2519 
15527 6663 4978 7413 11913 17666 14189 8322 10461 
7757 16886 12959 8120 17027 14733 11520 12538 8215 
2370 272 8627 16392 3500 14335 3015 11675 12016 
13908 3083 4463 15804 17625 14517 6401 7669 3044 
10666 12451 15744 6875 8560 2275 3342 14115 11003 
14029 12992 15152 9523 13985 3946 16630 17374 201 