# vtk DataFile Version 5.1
Generated by LIGGGHTS
ASCII
DATASET POLYDATA
POINTS 17850 float
-0.0061195 -0.0273752 0.000553398 -0.012363 -0.0241984 0.000551152 0.0165389 -0.0238993 0.00074795 
-0.00883984 -0.0257083 0.00053104 -0.00779897 -0.023049 0.000549533 -0.00219032 -0.0236968 0.000584514 
-0.0111262 -0.0230861 0.000553288 -0.0100159 -0.0228351 0.000541802 -0.0199708 -0.0198044 0.000615556 
0.0126588 -0.0186119 0.000622288 0.0155114 -0.0181821 0.000602196 0.016307 -0.0189474 0.000793076 
0.0221279 -0.0192793 0.000595764 -0.0236028 -0.0173827 0.000588912 -0.0224431 -0.0177102 0.000617238 
0.00925477 -0.0174121 0.00087364 0.0109087 -0.0167004 0.000565622 0.0144507 -0.0167687 0.000540742 
-0.00547609 -0.0158228 0.00066355 0.0118451 -0.0145952 0.000635321 0.0218138 -0.0179714 0.000566922 
-0.00326197 -0.0146493 0.000621029 -0.00151414 -0.01546 0.000626691 0.00712793 -0.0139349 0.000594286 
-0.000370107 -0.0149341 0.000660135 -0.000932299 -0.0138505 0.000630558 -0.00323939 -0.0120418 0.000691591 
-0.00115536 -0.0126087 0.000630063 -0.00981175 -0.0112652 0.000629442 -0.00927541 -0.0099813 0.0005683 
-0.00445514 -0.0103096 0.000606865 -0.00320616 -0.0108748 0.00056792 0.00874466 -0.0104481 0.000552997 
0.0166018 -0.00914509 0.000605903 -0.00181582 -0.00968765 0.000566704 -0.00695113 -0.00806889 0.000609459 
-0.00355735 -0.00749294 0.00109949 -0.00351879 -0.006483 0.000784991 0.020809 -0.00608786 0.000595029 
-0.0239283 -0.00486563 0.00070545 0.00196168 -0.00350706 0.00079133 0.0275027 -0.00243035 0.000691819 
0.00387144 -0.00241024 0.000609184 -0.0272263 -0.00245623 0.000529048 0.00120512 -0.000865507 0.000781917 
2.97347e-05 0.00080748 0.000716636 0.00113321 0.00069414 0.00061108 0.0025758 4.96891e-05 0.000572104 
0.00405084 0.00139454 0.000870265 -0.0279556 0.000239747 0.000546632 -0.00883088 0.000533117 0.000576114 
0.00074575 0.00193374 0.000591758 -0.0090987 0.00262261 0.000784907 -0.00784066 0.00277472 0.000608966 
-0.020449 0.00235116 0.000835999 0.0169052 0.00575361 0.000740691 0.00663235 0.00716008 0.000882735 
-0.00815821 0.00829346 0.00054307 0.00519353 0.00873085 0.000796271 -0.00404063 0.00990271 0.000601826 
-0.00946133 0.010853 0.000532087 0.0164012 0.010689 0.000533065 -0.0175602 0.0104292 0.000716427 
0.0204078 0.0115089 0.000769141 -0.0115194 0.012625 0.00075419 0.000425774 0.0125177 0.000530111 
0.0189304 0.0129724 0.000657487 -0.0236155 0.012923 0.00067495 -0.0106994 0.0136007 0.000561856 
0.00468216 0.0137373 0.000626725 -0.00707026 0.0138144 0.000757992 0.00560069 0.0143287 0.000699575 
0.0189837 0.0147853 0.0005482 -0.00271932 0.0155991 0.00062027 -0.000895223 0.0153858 0.000549527 
0.0173391 0.0171645 0.000592632 0.0238994 0.0171217 0.000722368 -0.0220279 0.0173267 0.000768805 
-0.0203707 0.01778 0.000804168 -0.0213757 0.0184112 0.00063845 -0.0221458 0.0193522 0.000514535 
-0.021357 0.020144 0.000622872 -0.0204179 0.0206551 0.00061641 -0.00663292 0.0243916 0.00079685 
-0.00893178 0.0262912 0.000840979 -0.00487286 0.0284164 0.000549384 -0.00547105 -0.0288698 0.000639387 
-0.00396605 -0.0291015 0.000837866 -0.00177893 -0.0292626 0.00135155 0.000655792 -0.0293105 0.002045 
0.00222431 -0.0291693 0.00220303 0.00322913 -0.029039 0.00284037 0.00447188 -0.0288472 0.00258459 
-0.00293228 -0.0287708 0.00127783 -0.000163769 -0.0285816 0.0016728 0.00101967 -0.0279296 0.00142285 
0.00329425 -0.0279252 0.00227022 0.00816432 -0.0281701 0.00346202 -0.00734827 -0.0275153 0.000620392 
-0.00234685 -0.0278703 0.00135257 -0.00128681 -0.028167 0.0013402 -0.000467181 -0.0280102 0.000687013 
0.00194772 -0.0279688 0.00240463 0.00402525 -0.0280339 0.00315639 0.00913405 -0.0276287 0.00292876 
0.0100527 -0.0269703 0.00295341 -0.00298897 -0.0269248 0.000682212 -0.000403708 -0.0264384 0.00210256 
0.00293358 -0.0266291 0.00290456 0.00313296 -0.0266212 0.00133118 0.00435296 -0.0264815 0.00250189 
0.00889063 -0.0259863 0.00258104 0.0111749 -0.0270508 0.00347227 0.0123126 -0.0259284 0.00331615 
-0.011828 -0.0261353 0.000817614 -0.00579726 -0.0262449 0.000723485 -0.00418424 -0.0262869 0.000647238 
-0.00191184 -0.0265656 0.00163852 0.00642743 -0.0260623 0.00289996 0.0114724 -0.0253277 0.00258067 
0.0142725 -0.0257439 0.00276692 -0.0142361 -0.0256636 0.000648802 -0.0131886 -0.0258328 0.000707136 
-0.0114167 -0.024952 0.000649153 -0.00782391 -0.0254541 0.000915202 -0.00534921 -0.0251428 0.000614283 
0.000223869 -0.0252973 0.00177218 0.00133564 -0.0252315 0.0021563 0.00240462 -0.0253758 0.00265746 
0.00344343 -0.0256951 0.00321589 0.00435285 -0.0249417 0.00299978 0.0124202 -0.0244855 0.00306065 
0.0132754 -0.0252222 0.00305504 -0.0154278 -0.024593 0.000683398 -0.0133765 -0.0247601 0.000780998 
-0.0102127 -0.0255181 0.000651255 -0.00434569 -0.0241495 0.00122045 -0.00375287 -0.025258 0.000931232 
-0.00214504 -0.0250195 0.00127139 0.00335064 -0.0245121 0.00297478 0.00669666 -0.0244833 0.00261155 
0.00781212 -0.0238397 0.00305823 0.00916192 -0.0244262 0.0032814 0.0114832 -0.023966 0.00312456 
-0.0165336 -0.023925 0.000706984 -0.00992931 -0.023932 0.000619996 -0.00501618 -0.023195 0.000766325 
-0.00315439 -0.0242308 0.001112 -0.00126977 -0.024156 0.00149803 0.00123058 -0.0241254 0.00230822 
0.00248855 -0.0241345 0.00237879 0.00424506 -0.0236824 0.00327915 0.010177 -0.0237305 0.00266539 
0.0121895 -0.0236604 0.00232969 0.0131431 -0.0242606 0.00202964 0.0149556 -0.0236626 0.00201206 
0.0175938 -0.0235269 0.000962749 -0.0153755 -0.0236093 0.00153775 -0.0144168 -0.0237428 0.000793193 
-0.0132163 -0.0235486 0.000778185 -0.00697716 -0.0228156 0.00138755 -0.00629769 -0.023298 0.00061413 
-0.000476248 -0.0231801 0.00149661 0.000109236 -0.0237223 0.00268576 0.00126864 -0.0230013 0.00222797 
0.0033269 -0.0232554 0.00272091 0.00515084 -0.0235328 0.00269734 0.00788913 -0.0228174 0.00238379 
0.00921191 -0.0228046 0.00302083 0.0104778 -0.0225781 0.00284859 0.0127916 -0.0228109 0.00217945 
0.0137928 -0.0232519 0.00237639 0.0162148 -0.0231599 0.00208829 0.0168489 -0.022739 0.00126516 
0.0181286 -0.0231262 0.0017909 -0.0184589 -0.0226153 0.00110872 -0.0169481 -0.0223225 0.00148057 
-0.0157224 -0.022574 0.00119376 -0.0138532 -0.0218924 0.0017744 -0.0125316 -0.0228584 0.00129202 
-0.00917993 -0.0221418 0.000766803 -0.00833603 -0.0227879 0.00140172 -0.00726979 -0.0216892 0.000713518 
-0.00550479 -0.0224462 0.00143724 -0.00453182 -0.0221474 0.000965203 -0.00342183 -0.0224118 0.00131114 
9.57757e-05 -0.0224712 0.00256877 0.00241147 -0.0225484 0.00294538 0.0037797 -0.0222811 0.00235738 
0.00542888 -0.0220876 0.00224305 0.00694748 -0.0217851 0.0026825 0.00851283 -0.0218956 0.00279354 
0.0117556 -0.0225946 0.00267802 0.0145557 -0.0225227 0.00183652 0.0178309 -0.02222 0.00134565 
-0.0199262 -0.0212781 0.000606173 -0.0168311 -0.0209605 0.00135984 -0.0149434 -0.0214258 0.00181659 
-0.00832725 -0.0215108 0.00103543 -0.00544497 -0.0212661 0.000610872 -0.00141492 -0.0220609 0.00130875 
0.00316286 -0.0216766 0.00324286 0.00923089 -0.0213291 0.00207089 0.0103667 -0.0213559 0.0022702 
0.0122665 -0.0212654 0.00162229 0.0141543 -0.0215176 0.00106411 0.0151745 -0.0216035 0.00169744 
0.0186399 -0.0215968 0.00127736 0.0196947 -0.021727 0.00160486 -0.0209504 -0.0206155 0.00084997 
-0.01907 -0.0209876 0.00170337 -0.0180289 -0.0211694 0.00147291 -0.0142274 -0.0205562 0.00188105 
-0.011824 -0.0214347 0.000760496 -0.0108853 -0.0213784 0.00136245 -0.00958206 -0.0208536 0.000990052 
-0.00771278 -0.0205838 0.0010014 -0.00651405 -0.0200052 0.000702863 -0.00501463 -0.0193016 0.000675317 
-0.00258902 -0.0209252 0.000942139 7.76505e-05 -0.0215881 0.00181553 0.00132488 -0.0214752 0.00231361 
0.00407789 -0.0208371 0.00269293 0.00657209 -0.0206875 0.00261199 0.00789259 -0.0209414 0.00185374 
0.011364 -0.0203963 0.00153825 0.0119827 -0.0201538 0.000663425 0.0132953 -0.0206804 0.00202519 
0.0163977 -0.0213637 0.0014789 0.0170032 -0.0205955 0.000903942 0.0186573 -0.0207678 0.000590998 
0.0204739 -0.0209462 0.00165531 -0.0218846 -0.0195888 0.000596442 -0.0185954 -0.0200659 0.00129014 
-0.0156666 -0.0206177 0.00185887 -0.0102537 -0.0199333 0.00138792 -0.00385728 -0.0187318 0.000719083 
-0.0025841 -0.0190255 0.00110986 -0.00137014 -0.0197272 0.00114502 -0.000655022 -0.0203372 0.00185935 
0.000551217 -0.0195573 0.00103076 0.00258365 -0.0202055 0.0019754 0.00359173 -0.0192858 0.001704 
0.00974827 -0.0197867 0.00169788 0.0140174 -0.0204235 0.000934563 0.0142922 -0.0193424 0.00137346 
0.0174385 -0.0195882 0.000570604 0.0197178 -0.0203641 0.000606708 0.0205946 -0.0209981 0.0005772 
-0.0227771 -0.0185862 0.00133151 -0.0166976 -0.0198872 0.00186043 -0.0151679 -0.0197681 0.00238978 
-0.0125768 -0.0190571 0.00190628 -0.0111379 -0.0193238 0.00170838 -0.00869344 -0.0192693 0.000907988 
-0.0067842 -0.018828 0.0008634 -0.000517206 -0.0183317 0.001404 0.00383297 -0.0181649 0.00158542 
0.00466755 -0.0198303 0.00226826 0.00686685 -0.0192669 0.00103211 0.00829054 -0.0193365 0.00151171 
0.00943386 -0.0185966 0.000956368 0.0105977 -0.0190184 0.00117085 0.0137129 -0.0185149 0.000927743 
0.0156226 -0.0197612 0.00114459 0.0186411 -0.019556 0.000607074 0.0205612 -0.0196954 0.00101699 
0.0214265 -0.0201197 0.00059481 -0.0215625 -0.0184989 0.000620346 -0.0202086 -0.0186648 0.00067906 
-0.0192279 -0.0190009 0.00130516 -0.0181162 -0.0190331 0.0014055 -0.0159018 -0.0189391 0.00260308 
-0.0146441 -0.0187086 0.00249508 -0.0119713 -0.0181824 0.00174466 -0.00912047 -0.0184101 0.00139482 
-0.0079161 -0.0182697 0.00172738 -0.00571339 -0.01761 0.000795961 -0.00453609 -0.0178685 0.000658895 
-0.00333517 -0.0176954 0.000584656 -0.0020321 -0.0179459 0.0011084 0.0078554 -0.0181978 0.00172599 
0.010565 -0.0177685 0.000742848 0.0145699 -0.0178719 0.00101595 0.0175442 -0.0180407 0.000792635 
0.0198012 -0.018948 0.000632086 0.0209033 -0.0187144 0.000834416 -0.0182569 -0.0182565 0.0023082 
-0.016667 -0.0180921 0.00258943 -0.0154758 -0.0177743 0.00269744 -0.0114672 -0.0171921 0.00117838 
-0.00930458 -0.0168122 0.000860315 -0.00664016 -0.0168289 0.000981175 -0.000663148 -0.0172444 0.000951807 
[...]
POINT_DATA 17850
FIELD FieldData 6
id 1 17850 int
10866 5986 775 6018 12168 11907 5274 6741 10670 
15749 12736 3886 3876 14102 11008 7100 10860 6566 
17492 13302 12206 13156 16662 3194 7272 11851 38 
6995 16446 11645 12478 12476 4725 4671 10401 5754 
16079 17197 7761 2652 11726 15864 16753 17693 11294 
6054 11000 14507 6420 12424 9784 16832 14299 4572 
169 11531 3037 5188 979 9714 17033 12664 4254 
15214 15648 11868 9605 10208 11757 14688 2291 5831 
6902 268 5918 15361 10521 14059 14038 12775 964 
9953 17576 12325 10710 12024 994 4839 500 8748 
16125 16336 12252 6337 1265 6442 7117 4782 10032 
9524 15109 6272 1589 6662 14915 3931 5519 16625 
16734 8145 9610 17745 15056 8790 4278 13139 14980 
1623 1502 10941 11250 17318 10511 110 7829 7743 
1251 9912 7884 9891 8708 4786 706 1800 4438 
9236 1056 7781 11372 12542 10886 1556 2716 16790 
12846 7246 1673 3047 3875 9556 14582 10361 14282 
6762 4048 13033 6348 5170 10417 5500 975 59 
2615 7103 15785 8200 11499 10735 2112 5539 6292 
13775 852 9282 473 1489 2946 11440 6840 2690 
8584 11080 13772 12208 13965 10694 14846 13665 11716 
8172 12854 16058 6361 1014 12716 15300 15007 11127 
6027 1137 11360 13949 16469 1091 3428 4215 6939 
5751 8600 10614 13997 6804 16266 3544 3099 8615 
16556 10050 13849 14982 17080 11402 10245 16623 15143 
11700 7991 13263 1840 12113 2900 5826 9658 16979 
17248 10697 3369 10744 8026 4672 8349 4568 10582 
8423 17390 3258 14686 558 6800 15199 14957 4752 
12378 11673 15928 16534 8363 5288 459 824 5741 
16198 13507 11188 10446 2060 11542 11316 13161 8706 
13994 10718 13459 14868 10574 6261 1321 1890 16856 
2720 166 211 8561 15610 11677 12807 11652 3810 
10669 5503 13666 14635 13661 10251 1409 13516 10097 
12488 2397 15342 13487 8134 10888 13353 16259 2549 
14496 4183 15543 8521 5978 3559 13842 16112 14940 
8892 14943 5377 8273 823 6571 17577 165 4538 
15282 9924 6241 14819 15022 16560 5824 9887 11297 
5474 12411 15770 1076 17113 621 11988 6843 11820 
5936 12245 3463 16370 8518 12706 14399 11218 5383 
5464 12939 2760 12207 10454 15083 10656 16268 10567 
17366 5961 11619 12061 12919 11084 143 17226 2037 
11411 4767 3786 6205 3752 435 10083 16130 2150 
5604 6530 12001 12019 11972 14560 16379 195 14019 
10572 12945 9661 1380 887 10816 13419 16872 15966 
5980 12558 9649 7589 1276 2638 8515 13755 14920 
15484 15325 2664 10468 4381 3813 16438 4792 8222 
11745 7314 16496 12545 873 16096 4548 637 3683 
3407 6587 539 13326 17722 13430 8342 16278 17635 
4795 2048 14071 1766 5470 10767 15311 10151 16676 
10795 13523 1504 11518 5725 14109 17614 8971 5695 
10604 12056 3458 9822 5574 1870 5612 4320 11951 
7958 17027 9930 10134 12242 4604 16400 418 5833 
11068 3561 1044 16409 1122 9446 3226 3065 7908 
1915 4109 16422 5026 5238 12502 9233 16301 12709 
16765 4629 13335 9607 16749 8658 10501 11502 8282 
17337 106 3718 10998 2488 926 1940 7612 1203 
8004 717 15961 9485 14464 7363 1169 3118 4309 
13182 16357 15992 16146 11549 13172 17606 12946 416 
15590 7872 4226 7462 1953 13958 15465 945 15980 
2787 14079 426 14453 12472 2280 10093 6432 8717 
7003 4661 16322 17750 11861 3147 10114 6094 1948 
11074 8740 8701 1764 16974 1081 5556 753 1218 
11264 9370 9182 5578 10743 16530 1563 16960 1780 
3352 11707 17817 6020 5615 4864 12924 16421 8979 
11061 10483 16649 3108 15811 15358 9687 6188 9578 
8511 5138 7596 14120 1990 1853 1074 3700 1110 
2940 17625 15722 6609 8546 12244 7491 4707 8446 
7097 2948 14124 2134 12802 2862 12109 16293 6732 
14034 6698 8226 5584 5219 12040 9142 16317 10805 
11434 4098 2275 16996 6162 1377 7221 15848 16762 
718 14544 14778 7995 16013 4449 12122 5949 7502 
2460 5226 13988 13684 7173 17770 2215 3839 14332 
2527 13504 7525 14407 9867 12235 11732 17401 13995 
2197 16389 481 122 6070 13505 16741 6004 4302 
4959 16693 10514 11216 15488 12189 14816 9144 14900 
3743 16818 3082 7347 13152 16462 16035 7936 2337 
1006 9521 7261 13392 16616 10914 3705 11260 14398 
12460 11936 4519 6080 4986 641 5804 16461 10331 
8603 11159 825 5567 3726 9634 373 15433 15658 
15572 5406 11184 3178 10341 11520 17223 17194 14733 
11618 17843 10356 10707 7345 3361 2600 14500 10612 
12866 16213 7740 17593 13317 3278 15043 16828 16129 
16464 4979 4266 3277 589 10104 6786 15173 2619 
8534 6016 3402 1773 4537 10419 3380 12667 16757 
13654 9636 4051 9369 17848 4923 6238 11419 1112 
12516 4483 3790 15719 13705 6258 10576 16352 2160 
10049 13322 3956 14969 1036 14752 13626 13004 5977 
11933 12967 6798 2452 10060 15275 3941 12493 14249 
1833 14691 11346 15802 10652 4676 4842 4856 15680 
12334 342 15826 17567 12152 14244 10662 15614 3356 
14060 5391 12057 6285 2433 14481 13144 12893 16161 
13038 4888 6445 11657 3817 11661 7323 948 7326 
952 3633 11629 7677 16040 11776 17093 10664 1381 
17768 4895 677 10966 456 5259 4123 809 17437 
9647 7573 17617 8826 7697 6812 15042 8955 15745 
12177 14962 16101 6831 454 15241 11325 12922 8023 
344 8785 15513 13274 11163 4250 16374 277 5789 
7799 16919 11587 2319 10725 12953 7758 5473 15453 
2085 7260 15149 8339 762 7713 2303 8918 3557 
5270 3611 8542 6045 8278 4840 1652 6644 15280 
15672 4313 9205 12369 17015 6791 15318 5514 792 
15431 875 7390 17023 15781 9701 11430 9019 2772 
2779 7224 15446 207 8261 2453 13545 17287 10638 
341 2013 12849 1848 2833 12835 9373 12479 17265 
10527 10348 7066 17731 6338 17511 11670 10976 6660 
1826 5865 13693 7471 12105 6605 10615 17277 17473 
8471 4364 15413 13185 10537 6973 2601 17742 10239 
12251 5535 15368 8113 4010 14225 14961 5600 11839 
6677 5537 9584 15288 14008 17444 7041 10297 8120 
7205 16003 1775 14888 13452 3373 2400 2756 13130 
17801 4162 12507 3652 3766 13215 9203 11293 11557 
2294 9416 16987 14161 13451 1715 3679 10219 13380 
12626 11630 10372 16251 13592 14448 15295 3666 2643 
10639 458 14095 11977 4030 12762 3383 17034 14653 
3188 2971 16725 17199 5906 12756 5587 14330 17495 
17489 13691 8610 9241 1882 10312 5384 9996 7720 
8946 6870 8884 12864 11079 14029 5709 2185 12980 
17590 11412 9500 15147 2763 7626 1875 15127 13850 
16692 13296 11449 12748 16020 14148 7123 15045 16119 
12060 410 4994 8806 9028 2874 15010 4360 11939 
17777 3977 16698 9609 16549 1629 10657 15146 6960 
619 9004 7750 8543 12324 1972 16922 12730 5989 
4908 6703 1904 7902 119 9591 8734 4415 11780 
5066 17439 13831 6642 14260 14645 16452 7530 4269 
8694 14874 9600 12487 5404 13669 15219 4531 1930 
7526 4574 13052 12948 2727 17099 13484 16784 16348 
8745 12813 7752 3017 16476 1984 3483 5133 7327 
2557 5054 15067 16630 8144 10716 213 4561 11002 
9545 11170 7510 14678 14524 15374 649 3053 13170 
3928 7707 11180 14727 9050 8926 6152 16334 16652 
16865 10780 9877 6985 2469 6947 10506 12600 10554 
15566 7637 16928 4814 9596 16335 15604 4749 16543 
16838 1100 337 1210 6918 12598 17594 13101 13047 
10188 16971 6855 13987 3184 4486 7576 6454 7538 
847 14533 13902 12782 12375 11727 4256 1846 14452 
8618 9919 8323 6009 13662 5654 14401 9293 494 
17136 2491 17273 8022 827 756 273 2525 10964 
13372 729 7687 6347 6259 2348 14997 15850 15341 
9127 9798 715 14917 1595 13492 8056 7006 10636 
262 15014 2764 862 3275 2080 8815 7897 10900 
3132 5592 1046 4718 5594 10206 2655 5684 13153 
8863 10274 17649 16127 12865 4616 8041 10421 5680 
7722 14587 3890 13520 3126 6624 4647 8823 2982 
8169 5885 2081 4567 2117 5878 2067 13253 17312 
10869 15814 3195 2644 15532 12527 2468 5264 9457 
3267 10585 15741 5020 5213 5800 12462 5287 3740 
2913 1166 8089 16261 16010 2579 3199 6268 13803 
4832 1788 11248 3654 10804 17220 4579 5603 4223 
2814 4306 16550 348 2210 5614 9053 1096 5467 
11073 3784 267 13708 15003 15498 8299 8562 4119 
152 3697 14520 10181 11383 909 11010 10748 949 
5719 6631 6618 15776 5668 5198 11291 4173 2886 
6896 14642 524 11306 9328 6987 3951 9840 9223 
8943 10020 1307 8028 15452 8544 12755 8762 14884 
16880 12559 5048 8171 3172 5447 17779 11022 13751 
15460 15891 2015 7683 1070 1852 450 13051 2739 
11144 7400 8904 7539 2623 3222 17464 17092 3395 
7189 9740 322 11822 5235 10908 11584 2161 12408 
3187 6889 8886 11701 6497 13895 7629 3363 8921 
11747 1690 8072 4526 13976 6727 10396 3733 3151 
10376 6640 8973 10435 5340 3419 8065 15477 2040 
1274 16309 7857 8794 10714 1877 962 7843 1447 
9451 14755 3288 8463 6671 3030 6250 2008 7715 
16923 17250 15824 9224 991 7014 17370 7668 16771 
13176 1606 15840 7187 4484 14414 11125 162 16442 
14134 9725 13978 7342 11698 10991 9931 793 11485 
11043 16557 2447 15430 1277 1413 12481 6886 16295 
4144 15778 480 9443 6778 7433 6914 13108 13580 
14389 2575 7198 9720 10790 17122 11704 13180 15602 
8651 8206 12843 5558 3692 11516 291 13973 12695 
4862 4809 4793 4659 10445 17177 6971 15661 5645 
7670 4780 383 10442 65 11204 14565 8300 10660 
12198 2269 7945 6269 12326 20 16240 15439 2107 
7046 7904 10456 13769 3467 7866 457 7432 7630 
8512 16156 11613 441 17654 15858 11634 11812 2891 
14933 9323 16573 11529 11423 12688 1043 13262 15898 
10658 5462 15941 9040 13416 14032 16396 3844 10018 
17045 14436 17131 7470 12234 4666 2861 7082 1395 
10200 515 15011 13455 1546 3074 8996 16976 15919 
12035 2169 12851 10389 7429 17222 11413 595 12856 
11879 7268 10452 5499 5437 15813 10173 16644 3397 
4470 8537 13871 6928 6012 7534 9801 8842 17555 
1726 11873 6138 9791 1435 14346 7978 15927 14863 
10061 7533 10834 174 15782 17450 17178 14836 10079 
12528 8715 12821 168 7399 8377 10001 17683 1480 
1739 3714 2221 15206 6144 13844 15713 9046 13039 
17206 9765 13218 9069 12543 14016 7403 1872 12204 
15953 2049 16740 10867 1478 15077 4327 16279 17323 
16729 11904 10246 17400 15760 5736 12130 5301 6998 
8142 11725 1082 14255 5341 3870 16940 6927 14471 
8797 9045 9665 4431 14942 17372 2915 6323 4965 
9283 10549 5851 1678 5768 9013 14020 7112 17701 
11945 4800 6357 420 16118 13463 12771 14877 12942 
15389 7606 9286 5508 8777 11647 1756 1190 8064 
16306 8372 8419 7788 14564 14573 11696 17811 13727 
11286 11672 10 4491 11329 15390 7765 4146 12338 
339 11186 7028 10610 11096 17738 7520 725 594 
10729 7301 12009 14976 2428 16226 12285 10095 9895 
836 1408 17313 16367 15414 15969 11807 7912 16484 
10256 2554 12037 12490 14596 5303 7880 10103 4936 
13713 14952 9843 14971 2853 15285 2256 4219 16028 
13742 2119 14838 10529 13891 12179 4972 3313 11208 
10507 16629 13494 4338 7402 12239 16485 8876 3310 
11364 7907 4410 1138 10760 16707 15160 3353 14397 
8728 17440 16726 9038 7485 14203 9984 11025 7058 
8581 5925 890 15334 497 2463 11738 1414 10539 
8318 14149 8246 15029 3460 12418 7332 2762 13148 
9002 10263 4665 11819 11617 4588 12777 15915 16258 
2441 3333 10690 7273 10487 6539 4595 4836 3146 
16245 5814 2475 13174 10412 6469 15637 1023 12373 
9133 2382 11035 11259 15643 12642 14757 5003 3079 
3940 16086 8195 6310 14794 11760 11087 7476 8567 
5352 12365 2695 13175 2461 16019 5267 10723 15200 
7701 16289 13709 8381 11975 9305 10798 12525 2719 
16752 3950 10528 16802 4174 7934 17030 1080 17267 
12386 11588 13314 16532 2292 9642 9747 6728 3231 
12885 13046 9976 10745 3431 3854 9200 11342 11911 
7574 11011 17338 1133 17170 8783 12188 14473 2729 
1786 987 13411 1250 10272 6240 2443 9317 1244 
4577 2362 7580 10752 963 5945 3276 10771 4973 
3993 15024 6582 11639 1471 7763 7119 8252 1888 
7319 9778 8961 362 17237 13178 2138 16839 7170 
6153 5782 15197 9799 12201 2844 6961 1982 2996 
16739 3716 10132 8436 3878 2477 6875 340 14092 
7798 11795 15201 13889 16495 2673 7566 9743 17619 
9313 3538 8450 1320 1583 16117 15154 17787 690 
2540 8913 17568 6705 15579 4818 11980 10706 16465 
15917 13837 16822 14485 11863 11946 2839 10066 14455 
11390 3447 9623 2255 17010 12363 9111 8284 1404 
8845 13854 17487 8153 3462 328 9026 15013 16559 
546 11513 13373 8716 13085 16403 14186 6082 13616 
13429 1499 16281 14162 3922 14963 4041 10525 4770 
11206 10137 7137 12764 7318 13461 10073 2561 10609 
15407 15728 3778 4287 8006 10543 7952 17601 9785 
13664 14590 3230 8633 11762 9022 15248 2217 1449 
5321 17094 489 3518 6531 15842 15105 16959 10519 
1465 4018 12711 17609 16160 10515 2955 17632 11056 
3615 9472 2521 12269 13095 11024 17066 16516 6345 
16276 2758 15594 11643 8173 2705 7601 910 6143 
6824 16359 12473 73 1795 2268 3229 8856 2646 
2051 1837 4906 1969 6317 14941 16831 4805 16948 
408 1172 6723 12016 14065 4195 2898 11913 13509 
10243 4829 3303 9378 7577 14352 14023 3776 15234 
16148 3636 7741 1620 7232 4617 11999 14699 15827 
9204 7926 8800 5759 15429 14279 7642 15111 15991 
12080 11649 5485 7849 4216 7154 10395 14499 4984 
12569 2748 16327 6494 6932 13964 9796 4049 11088 
4443 7821 15934 15392 8622 2325 8264 14369 16049 
9325 17733 100 9366 12477 17363 114 14555 13479 
1097 16614 8182 6091 6243 17691 17663 4140 16820 
12966 17758 1349 11894 12994 16173 15237 16308 16005 
16863 16147 17827 30 2356 7929 16851 1362 14386 
13905 8408 7800 13506 11607 7770 10774 1387 13232 
13428 5431 3958 2947 11515 723 15383 10440 15166 
14792 14518 7613 9762 16358 3225 11161 5283 1674 
17819 15546 8002 16891 10960 7040 14290 10712 10484 
10407 579 1637 13651 17410 482 14320 5122 16724 
221 10810 12268 6175 2593 5334 11103 14773 2986 
16931 6467 11086 7149 13522 2792 5899 1181 7636 
17790 436 13238 17300 15772 8833 10082 11209 17454 
3698 2440 9206 7871 12884 16113 11322 12546 8269 
15217 15545 15656 5779 11714 11157 10704 13214 17339 
15078 1474 14521 4918 14438 2435 14093 1108 7043 
12081 11710 15801 9673 11251 7365 12983 958 2821 
14742 13405 5130 10326 7161 17219 15983 17812 11644 
15914 1422 10627 11756 7072 14440 8424 6715 2706 
9593 9471 14410 8636 10189 14091 15284 12579 16080 
7101 3078 1983 4132 7290 8359 10330 10928 8067 
12929 2158 2548 16572 16351 10789 1369 4396 4827 
7237 9955 9878 13934 1323 10770 1154 1241 8623 
5591 15921 3675 12232 17830 15387 11109 14371 7125 
3114 9075 12888 3345 8161 14756 4634 1827 12134 
2142 10472 2609 17305 2331 9772 7782 1167 4488 
14439 1029 9268 5245 11713 12494 1550 5471 15954 
12701 64 318 3912 12540 10299 6360 12803 2478 
3845 15121 3176 4931 2307 15862 2066 8288 14137 
7505 15327 16099 398 9936 13768 12617 4983 7067 
11551 1113 15259 9096 15763 10579 11023 14446 11443 
7783 12492 9321 16806 3741 14803 9588 1453 7806 
6558 363 17362 9 2753 11886 8601 3274 4156 
11114 3167 6037 2369 15831 13404 13613 14039 14227 
310 12751 17681 6956 3894 16107 1067 4946 8459 
14944 9362 5338 1193 9319 15006 14428 6089 5777 
3808 16908 6679 6485 3376 2878 189 12712 15254 
4349 471 17068 16600 8235 14951 3613 14179 566 
313 203 1568 10836 7475 13920 14375 16942 12294 
6752 3185 1519 9065 3064 12882 11347 1754 7647 
9057 5710 3665 15743 4143 17407 1658 11193 1160 
7391 14151 14170 636 2361 6414 11420 730 916 
5916 6415 6946 2345 4094 5217 12330 6500 3210 
16710 15135 7635 289 6290 8687 7135 8163 4899 
5004 9888 244 4613 9760 7655 8749 16284 5755 
4334 6748 2121 8304 10602 745 9967 7329 7760 
3689 9691 4043 8112 9463 16136 4837 7325 15103 
9287 10624 6760 6738 9235 9773 12224 15792 1242 
12217 3196 2163 5775 7617 3757 697 8158 16468 
3453 4151 12910 8439 13240 2234 12004 16677 17196 
409 7177 6251 6410 9475 1483 10677 13936 11113 
6021 1194 527 1333 2113 2017 5923 7461 8765 
2957 11126 1666 1590 16742 5805 3787 12955 16569 
11740 10087 15068 2954 17805 11249 6524 12022 10548 
1751 9522 11005 10009 6475 11348 7300 1999 6771 
5079 3528 13867 12332 16087 4853 13181 13409 1004 
14577 11141 5703 14637 13022 10568 16205 14903 12214 
13629 2883 3311 625 8536 4904 7004 14403 3048 
123 16546 15049 14153 5146 15796 5583 9660 15998 
1103 10267 12936 9923 5412 14430 12461 13077 4501 
15711 16434 12256 2098 5602 3994 5380 1498 1933 
10022 8927 6967 3551 950 1648 884 17212 6687 
3662 484 5224 8925 5487 14746 15836 11477 7095 
15395 761 14789 13924 2202 4993 10692 12280 3104 
3569 78 15901 11685 16427 4507 15698 11966 4417 
6343 12950 2327 12799 11893 15386 4974 14392 7299 
10358 10894 3579 16731 16957 13846 2999 15423 11425 
15112 9652 5492 16588 15669 3309 16777 15018 3364 
6416 6945 5842 6912 10887 2214 15142 12595 14566 
14232 9467 226 2000 1224 942 1677 8950 9056 
14898 1805 2110 16504 4300 7150 2707 777 13566 
2490 8105 15365 4273 12832 4559 13294 2005 11665 
4633 14658 1804 5855 2261 9852 10788 13673 7989 
13005 6869 13467 16057 10498 9091 7786 15033 10169 
1913 2537 11201 124 16328 9089 13795 2091 12918 
222 17640 5161 5954 13470 2789 12051 5408 2651 
7893 17317 9245 1391 16193 11853 14550 16025 933 
4357 937 13640 14525 12676 12491 6522 2384 11561 
14683 14849 14433 11041 8404 10424 990 5676 6789 
11299 6584 7239 7836 15189 11324 8164 5379 749 
16342 12073 13438 14760 9331 11375 12045 14780 15329 
11963 16860 3514 6421 8641 10028 10651 16509 8378 
9821 8755 758 12136 17794 10138 12915 13087 2097 
14662 13589 16968 11640 891 4025 12327 11460 2914 
3416 7106 2598 15424 9777 9543 939 14548 16893 
14150 3643 5847 16157 4421 1220 1083 3892 3767 
5272 10423 15247 14987 14088 1868 15183 16009 8102 
13473 7789 17755 10766 9742 3154 12034 8101 5212 
2968 145 13923 15391 8248 10265 1240 2713 16599 
10414 12580 13852 3955 7341 4625 11603 17151 3768 
15132 7139 17253 2355 3049 11116 3973 2712 7477 
5544 8891 16043 8967 9761 14762 9700 4270 8414 
4730 5907 17182 17558 4847 16612 1428 7087 2775 
4748 7975 5932 8805 3488 3984 17224 2176 6669 
14317 15485 7422 6585 15715 17786 12047 9603 4365 
5415 3429 6006 2310 5186 10673 14895 40 10211 
14231 12055 6714 13244 8937 10737 13557 16664 4077 
3021 8859 6217 8855 14457 17077 10985 4078 9469 
7037 9426 3919 16704 10463 4233 16022 2734 13586 
14707 5992 4213 5660 15402 904 15192 7133 1063 
6065 11568 8333 12377 10349 16453 3029 5864 8250 
5868 8073 5128 13519 6704 15670 10090 3505 16032 
4939 14708 6990 5530 4420 8428 11094 5988 2465 
1779 17723 16273 12282 537 11654 8799 5952 6716 
14214 11589 9526 4402 11336 3619 1898 9737 5705 
8674 15377 10140 10965 9379 13773 16748 7466 3006 
10876 17806 667 15458 13498 12860 3644 17011 12025 
1287 10370 646 5910 15466 5421 5131 901 6598 
15544 45 16224 7011 533 11847 3917 10101 5317 
8878 5256 8829 9216 1213 6797 9125 15773 14999 
1897 11276 8130 5798 13217 5964 14129 13094 7706 
11194 475 9034 11856 10583 7938 6536 11233 6052 
3516 9563 11550 6336 16962 14510 10096 3952 14862 
4715 5446 8402 11905 12857 3738 16481 8492 12270 
10244 9626 6511 8401 4611 2632 3157 6498 10667 
3647 17359 7716 15225 4304 11091 9281 2340 10232 
8398 9032 9037 3704 11695 17221 8215 9063 17796 
10023 4087 17382 7624 12420 4970 17835 5000 15736 
3409 17239 11882 15307 14236 14655 5182 1393 17084 
14508 8843 6806 2056 9511 1042 12185 7217 3260 
2987 4765 13311 1106 562 5454 17155 1204 2143 
14891 13937 14087 17105 17653 15322 14906 11742 15973 
4927 8312 6543 13200 2800 11731 16430 9641 14970 
10486 16716 1545 15023 11876 12957 9139 12181 11536 
9910 15558 1123 10136 7666 11060 8872 5727 13475 
16011 11432 12371 4258 6136 17793 3466 7669 914 
9859 17705 1235 880 3827 10930 16168 6232 2144 
3614 12195 7875 13408 4463 10648 17187 6979 5937 
10091 7069 4114 13748 1494 13035 15843 13209 7691 
1248 12496 274 14254 7071 2504 11906 11211 10746 
10553 9893 2381 16581 17413 11492 17269 3685 10014 
7313 2376 14418 9149 10277 11099 11230 10689 10027 
16605 12008 11464 6562 17773 13166 12791 15299 141 
5886 13763 15155 8177 17172 9565 16494 16548 6407 
15450 17246 14633 14215 338 5967 12548 1071 4475 
5165 6131 16412 12935 4762 1515 12795 2974 17726 
5477 276 663 9831 2260 8281 14187 4315 9349 
8525 16350 1239 5453 15403 10306 8743 11604 5998 
11195 10754 11615 13538 15436 4086 17140 14879 15419 
13644 17349 13635 9466 2985 16529 17816 12240 8470 
4978 4164 10057 10429 9348 15487 4709 14983 11797 
3378 7686 4131 1431 8991 14014 14739 2766 12722 
7408 1372 8087 15769 16945 16660 4680 11266 2230 
11802 6274 5114 10007 7506 11817 4017 800 3128 
7492 2870 7570 413 9017 2188 11244 1115 5010 
1536 3170 6077 15159 13761 5438 13073 16920 4111 
7486 125 11447 4307 16751 2486 14558 7440 16538 
1856 14154 6892 15641 325 4975 15806 16675 15381 
16196 9478 10378 3015 2311 15592 8475 12708 11811 
6546 17752 12423 13549 520 15468 4953 16115 2308 
9015 17727 58 13605 7652 2896 10112 3066 3918 
10890 296 4796 8228 10218 4290 3366 478 757 
7456 2342 14054 17498 11840 6246 15755 2389 11895 
11857 8803 611 5012 509 16138 14812 7519 14820 