# vtk DataFile Version 5.1
Generated by LIGGGHTS
ASCII
DATASET POLYDATA
POINTS 17850 float
-0.00473695 -0.0290149 0.001722 -0.00238806 -0.0291688 0.00122431 -0.00132922 -0.0293376 0.00149616 
-0.000245642 -0.0293929 0.00149347 0.000834876 -0.0294052 0.00172701 0.00360519 -0.0289752 0.000700808 
-0.00678841 -0.0284947 0.00157489 -0.00306266 -0.0282189 0.00240222 -0.00171822 -0.0282617 0.0012787 
-0.000575016 -0.0283743 0.00124239 0.00168411 -0.0281269 0.000176398 0.00282216 -0.0279746 0.00133797 
0.00410847 -0.0280133 0.00112775 0.00439377 -0.0285741 0.000128374 0.00741049 -0.0281227 0.00185815 
-0.00770602 -0.0275106 0.00129308 -0.00552083 -0.0278057 0.00166959 -0.00444109 -0.0279322 0.00197922 
-0.00143283 -0.0275111 0.00208915 -7.43531e-05 -0.0269599 0.00192778 0.00533571 -0.0276052 0.000255376 
0.00626781 -0.0276002 0.000853191 0.00948363 -0.027537 0.00084816 -0.0113065 -0.0270232 0.00134654 
-0.0102678 -0.0264256 0.00176518 -0.00898181 -0.0267322 0.00122881 -0.00655798 -0.0272381 0.00200577 
-0.00554681 -0.0267582 0.0023144 -0.00458383 -0.0261713 0.00224645 -0.00305738 -0.0272998 0.0017027 
0.00101719 -0.0269083 0.00105597 0.00449827 -0.02692 0.00106928 0.00762946 -0.0269908 0.00188853 
0.00855611 -0.0270702 0.00116958 0.01178 -0.0269298 0.000519296 -0.0108391 -0.0258328 0.000972152 
-0.00785342 -0.0257563 0.00162747 -0.00685965 -0.0257999 0.000934804 -0.00572777 -0.0257584 0.00196883 
-0.00246189 -0.0262739 0.00170074 -0.00127227 -0.0264326 0.00189712 0.00030187 -0.0260634 0.00146236 
0.00238421 -0.0261974 0.00104597 0.00331252 -0.0269232 0.00109386 0.00619134 -0.0260979 0.000999736 
0.0103085 -0.0264688 0.000794539 -0.0133114 -0.0253296 0.00208535 -0.0122774 -0.0252766 0.00112484 
-0.0100593 -0.0251732 0.00141333 -0.00917888 -0.0255061 0.000871928 -0.00391584 -0.0249517 0.00106998 
-0.00171423 -0.0253742 0.00200011 0.00354105 -0.0260128 -5.46949e-05 0.00486402 -0.0258159 0.00139522 
0.00739511 -0.0261027 0.00128074 0.00857556 -0.0255334 0.000547049 0.0108183 -0.0254504 0.000732656 
0.0116858 -0.025141 0.00148849 -0.00778794 -0.0245157 0.00101091 -0.00581596 -0.0246544 0.00148499 
-0.00267436 -0.0250556 0.00153527 -0.000590844 -0.0254183 0.00114483 0.00133306 -0.0251168 0.00154891 
0.00390673 -0.0249508 0.000753175 0.00534324 -0.0249445 0.000859875 0.00990389 -0.0250424 0.00126624 
0.013261 -0.0252388 0.000375516 0.0137339 -0.0257632 0.00197501 0.0143039 -0.0254164 0.00110047 
-0.0158391 -0.0235748 0.00275296 -0.0135932 -0.0238836 0.00125231 -0.00946213 -0.0242547 0.00135153 
-0.00595114 -0.0236952 0.00083905 -0.00368391 -0.0237697 0.00143695 -0.00183206 -0.0241357 0.00197372 
-0.000146428 -0.0244081 0.00174981 0.00118505 -0.0237396 0.00141402 0.00237126 -0.0236398 0.00122256 
0.0033678 -0.0232993 0.00182431 0.00439671 -0.0239047 0.000606679 0.00524515 -0.0238825 0.00141432 
0.00755009 -0.0248032 0.000692115 0.00913116 -0.024214 0.00116651 0.0103576 -0.0239783 0.00136288 
0.0122579 -0.0244706 0.000700703 0.0133977 -0.0245233 0.00214628 -0.0122961 -0.0229138 0.00110829 
-0.0083136 -0.0233309 0.00095097 -0.0071541 -0.0234842 0.000671497 -0.00517869 -0.0228576 0.00178114 
-0.00232322 -0.0240179 0.00099238 -0.00118427 -0.0234039 0.00144255 0.000685564 -0.0226303 0.000564388 
0.00628126 -0.0233395 0.00135104 0.00720248 -0.0231982 0.000674048 0.00828997 -0.0235779 0.000657114 
0.0134102 -0.0240482 0.00058545 0.0137272 -0.0233628 0.00180111 0.0146766 -0.0242419 0.000783791 
0.0153663 -0.0250506 0.00134874 -0.00977138 -0.0230522 0.00133621 -0.00622243 -0.0227516 0.00131775 
-0.00570425 -0.0214195 0.000936601 -0.00459252 -0.0222328 0.00085705 -0.00238798 -0.0224774 0.000929399 
-0.00047058 -0.0220802 0.000908454 0.00495662 -0.0229361 0.000699428 0.00633847 -0.0223638 0.000618716 
0.00947404 -0.0234659 0.000233493 0.0112757 -0.0239242 0.000306125 0.0157863 -0.0234675 0.000962562 
0.0171295 -0.0232091 0.00177098 0.0176575 -0.0234842 0.000818709 -0.0202131 -0.021384 0.00115106 
-0.019371 -0.022057 0.001226 -0.0045406 -0.0212553 0.00146638 -0.00148287 -0.021609 0.0011379 
0.00276484 -0.022457 0.00149193 0.00426239 -0.0214464 0.000962144 0.00866042 -0.0221681 0.000946868 
0.0119055 -0.0214457 0.00140125 0.0135358 -0.0223949 0.000820714 0.0143751 -0.0231168 0.000751882 
0.017902 -0.0220589 0.0011999 0.0196042 -0.0217503 0.0018014 -0.00634972 -0.0202629 0.00117202 
-0.00373903 -0.0211457 0.000696516 -0.00281117 -0.0214034 0.0012973 -0.000693397 -0.0207749 0.00123913 
0.000556931 -0.0208942 0.00160641 0.00189343 -0.0214766 0.00168514 0.00624402 -0.0203489 0.000639228 
0.00711399 -0.0214102 0.000886005 0.00900228 -0.020683 0.000994793 0.00981834 -0.0220611 0.00106915 
0.0138875 -0.0210778 0.00167952 0.0151025 -0.0208165 0.00190443 0.0154833 -0.022127 0.00199109 
0.0165903 -0.022207 0.00169824 0.0197632 -0.0204883 0.0024467 -0.0211613 -0.0204491 0.00119462 
-0.019315 -0.0206291 0.00136354 -0.0183298 -0.0208701 0.00198262 -0.016283 -0.0203807 0.00243576 
-0.0120699 -0.0202471 0.00127805 -0.00486011 -0.0202581 0.000372353 -0.0030936 -0.0200883 0.000904567 
-0.00175768 -0.0202619 0.000753649 0.00203574 -0.0195986 0.00125623 0.00292544 -0.0207293 0.00141564 
0.00372946 -0.0201762 0.000622931 0.00794138 -0.0200722 0.00164396 0.00918685 -0.0198549 0.00179855 
0.013195 -0.0213014 0.000805538 0.0165614 -0.0206082 0.00230797 0.0184139 -0.0212469 0.00266843 
-0.0137922 -0.0194344 0.000692126 -0.00985253 -0.0193895 0.000694702 -0.00191879 -0.0186908 0.000923866 
-0.000874035 -0.0180038 2.0057e-05 0.000677252 -0.0199383 0.000880986 0.0033647 -0.0191715 0.00145665 
0.00528559 -0.0191609 0.000316157 0.00578248 -0.0194685 0.00126117 0.00759687 -0.0195142 0.000433486 
0.0110991 -0.0207406 0.00125429 0.0105702 -0.0194608 0.00107835 0.0129499 -0.0201776 0.000825199 
0.0143867 -0.0200383 0.0013262 0.0160762 -0.0200543 0.00109727 0.0183148 -0.019632 0.00218826 
0.0196461 -0.019936 0.00140728 0.0216194 -0.0187051 0.00159479 0.0226295 -0.0187335 0.00206419 
-0.0223362 -0.0189887 0.00248081 -0.0209176 -0.0185862 0.000641563 -0.0201881 -0.0194169 0.000637538 
-0.0190623 -0.0187438 0.00165258 -0.016574 -0.0191309 0.00193012 -0.0159319 -0.0192072 0.000699173 
-0.0114622 -0.0193334 0.00107431 -0.00718662 -0.018768 0.000942089 -0.00570114 -0.0193086 0.000442074 
-0.00448113 -0.0189553 0.00119559 -0.00342958 -0.0187558 0.000160968 -0.00029236 -0.0182196 0.0013724 
0.000818949 -0.0188162 0.00110474 0.00221126 -0.0185343 0.000744896 0.00425859 -0.0184476 0.000349935 
0.0090329 -0.0185734 0.00107 0.013162 -0.0184899 0.00143234 0.0141474 -0.0188 0.00176104 
0.0154645 -0.019131 0.00159751 0.0169376 -0.0189727 0.00191493 0.0227412 -0.0178846 0.00142374 
0.0235899 -0.0173242 0.000888865 -0.0224757 -0.0175739 0.00177252 -0.0210725 -0.0181465 0.00218377 
-0.0176406 -0.0180237 0.00219939 -0.0126167 -0.0185025 0.0010414 -0.0105105 -0.0185683 0.000901355 
-0.0051307 -0.0181944 0.000671859 -0.00165275 -0.0169694 0.000794523 0.00168652 -0.0172957 0.00122786 
0.0032404 -0.0178182 0.00138458 0.00607608 -0.0181576 0.00134354 0.00706301 -0.0186151 0.000608476 
0.010078 -0.0177625 0.0010486 0.0111488 -0.0176412 0.000645917 0.0118121 -0.0180448 0.00199601 
0.0136678 -0.0182283 0.00260914 0.0157464 -0.0175597 0.00156329 0.0175442 -0.0178889 0.0019301 
0.0207266 -0.0177011 0.0022645 -0.0235996 -0.0174724 0.00128727 -0.0196429 -0.0177551 0.00171235 
-0.0156003 -0.0175099 0.00194533 -0.00338448 -0.0178262 0.000997637 -0.00222914 -0.0177172 0.00140134 
0.00260159 -0.0166986 0.00065719 0.00398649 -0.0169574 0.00115668 0.00539837 -0.0175801 0.000627846 
0.00696925 -0.0173028 0.00145853 0.00799105 -0.0167021 0.00113694 0.0102911 -0.0167116 0.00166532 
0.0121586 -0.0171288 0.00133083 0.0145901 -0.0177608 0.00192736 0.0166714 -0.0168443 0.00186676 
0.0189016 -0.0170734 0.0017091 0.0235607 -0.0166211 0.00178088 -0.0240856 -0.016019 0.00117926 
-0.0229357 -0.0163895 0.00184512 -0.0215461 -0.0168839 0.00162667 -0.0198834 -0.016854 0.000799454 
-0.0168244 -0.0170155 0.00215875 -0.0144109 -0.0174172 0.00184295 -0.0117367 -0.0174509 0.00201645 
-0.00955977 -0.0182429 0.00163726 -0.0071311 -0.0174869 0.00109591 -0.00649548 -0.0172736 0.000270962 
-0.00262167 -0.0166592 0.00111686 -0.00233467 -0.0162631 -0.000255171 -0.000595854 -0.0165242 0.000886 
0.00147436 -0.0158219 0.000484027 0.00350941 -0.0161881 0.000463703 0.00481721 -0.0161554 0.000443508 
0.00655909 -0.0162236 0.00126067 0.00895003 -0.0161709 0.00121774 0.0133641 -0.0170283 0.00201759 
0.0141413 -0.016085 0.00223235 0.015321 -0.0165413 0.00148037 0.017654 -0.0165228 0.00237775 
0.0206945 -0.0163289 0.00116967 0.0224404 -0.0167626 0.00103035 -0.0227552 -0.0152944 0.00153459 
-0.0176186 -0.0161936 0.00184603 -0.0156493 -0.0163945 0.00201912 -0.0145178 -0.0160364 0.00253844 
-0.0135672 -0.0168463 0.00215833 -0.0104621 -0.0173201 0.00168015 -0.00777823 -0.0176516 2.16204e-05 
-0.00543485 -0.016702 0.00156916 -0.00452291 -0.0175602 5.74725e-05 0.000530536 -0.0153201 0.00104082 
0.00258083 -0.014911 -0.000288347 0.00422141 -0.0152134 3.72043e-05 0.0081065 -0.0156711 0.000721138 
0.0118442 -0.0159958 0.0012724 0.0130256 -0.0157651 0.0017088 0.0149937 -0.0155057 0.00124752 
0.0172276 -0.0162111 0.00107105 0.0184183 -0.0158932 0.00147491 -0.0215294 -0.0152057 0.00152178 
-0.0192803 -0.0161796 0.00145772 -0.0135138 -0.0155498 0.0025707 -0.0114209 -0.015579 0.0017766 
-0.00847206 -0.0154112 0.00203082 -0.00285051 -0.0147537 0.000955893 -0.00173454 -0.0145778 0.00129569 
-0.0011347 -0.0150608 0.000315656 0.00485725 -0.0154628 0.00139151 0.00595131 -0.0152485 0.00133769 
0.00724521 -0.0153121 0.0013898 0.00868763 -0.0144238 0.00137291 0.00990303 -0.0150865 0.00164709 
0.0111531 -0.014512 0.00159385 0.0178799 -0.0148378 0.00090915 0.0196526 -0.01503 0.000895566 
0.0208715 -0.0150747 0.00130892 -0.0203313 -0.0152367 0.00141317 -0.0185906 -0.0152201 0.00134479 
-0.0159559 -0.0151667 0.00271859 -0.0143426 -0.0150947 0.00318797 -0.0125591 -0.0148604 0.00305435 
[...]
POINT_DATA 17850
FIELD FieldData 6
id 1 17850 int
3457 12408 6130 15543 11570 15679 69 16738 10862 
10302 9987 1601 7239 12061 3344 7498 6416 3444 
12609 785 5351 14265 10916 78 17809 4090 15 
962 13275 14914 7885 8933 504 12315 4873 16151 
8491 14913 3624 6910 13410 6215 332 15919 12545 
13245 3104 1731 6141 10233 2374 15016 5143 4491 
16298 12029 11749 7535 13271 14817 16556 5405 12869 
5675 15727 4390 10586 14245 6248 8488 5265 12168 
13862 8213 4559 3052 9347 5895 12566 17668 4887 
10261 16546 10418 5161 5051 14199 14482 9448 2549 
6288 8766 6735 6006 14113 2483 2446 142 14462 
3338 16205 6794 9091 9122 8495 15061 1190 16518 
6817 13472 15665 6296 8844 924 10714 16782 10840 
14649 12916 7898 10168 6795 7259 14117 13817 5519 
3492 10718 4520 9054 12317 4717 3964 418 3713 
14173 6328 13980 8787 12435 15495 17571 14784 8941 
5008 14384 7978 14958 147 2057 9573 15207 14713 
17545 10837 304 527 6050 13139 17299 6586 12011 
11849 17156 16958 16400 699 5969 14006 17377 4362 
3290 9694 10905 1489 11258 10619 6014 8055 15583 
4405 5386 4690 11069 10568 7222 7316 128 4515 
13482 17036 11100 749 13043 17315 12110 8318 17799 
4404 11987 5558 5449 15853 3177 9655 14419 6367 
7823 16687 2742 1455 8854 707 13925 2774 15063 
14325 153 6351 5648 7546 6396 2784 15706 8853 
13231 14358 3480 16567 16357 7545 9187 4011 17140 
9350 12669 3747 10463 17562 4812 11726 4976 12012 
8416 6804 9003 3429 15189 11431 10673 17021 3999 
760 5272 10625 1922 10919 5847 4371 11257 6706 
4406 10385 11720 5786 1756 4448 6451 2920 16410 
10423 7592 11690 4234 4661 8670 7588 8683 12521 
10230 4716 2638 2914 11116 1765 13560 11270 1315 
7392 14559 6185 13975 16059 16789 110 884 4550 
2762 11976 2026 7106 9130 13721 10549 14954 7437 
2068 1766 14033 15073 13330 16405 15268 2418 5736 
3102 6283 8142 3367 12383 11572 1435 2988 2475 
5749 6894 9574 1343 16396 14476 14811 4588 2259 
1670 6289 11917 3714 12355 497 4026 9924 1708 
17138 13863 1025 15747 15963 17408 6244 2734 13465 
13715 2087 16484 10583 15771 6105 14597 9567 143 
9435 15325 11853 4342 1884 1395 12880 12625 10441 
1356 11951 316 6518 6995 7133 9064 15569 9005 
10642 16594 9748 12878 5454 11366 10416 777 671 
4816 3154 4649 10600 2159 6075 12245 5747 2499 
13606 9692 1434 9810 11568 14578 16448 3226 8502 
8250 7403 14956 16749 5546 15990 5795 16042 12642 
5641 6076 6767 4685 17573 3933 8654 15021 9684 
1089 11784 10913 1051 7901 9405 13895 14388 16933 
8377 4877 17148 5138 12345 5599 1225 11975 3511 
12340 6530 10355 2428 17164 6915 8571 14305 6689 
16018 12235 10614 14618 15976 8872 3462 1420 6669 
12963 245 5980 2000 2572 2574 4079 4465 12014 
9160 16245 6430 17280 14781 13660 6237 9860 6125 
5748 940 16279 11319 4320 14249 4807 2522 10365 
7724 3203 13419 3706 11315 550 2861 12179 16952 
16902 3001 5638 8645 13963 8795 13072 13447 16866 
5845 8546 4253 14897 9661 10610 17113 17151 5437 
7955 10831 11077 1572 9861 16293 4077 14096 17717 
5222 2457 6071 16673 5772 14636 14751 6610 15186 
2405 2302 10411 11184 9647 10773 7021 10969 3152 
14986 11256 12376 1018 4127 7121 6405 4267 11460 
821 14171 10771 11333 421 3155 5179 3583 6815 
12050 9563 13933 9771 2290 12572 6153 13338 3716 
6345 16723 286 10529 17170 13859 7145 11758 4091 
6837 10263 15432 932 8516 5607 5310 7480 10093 
11338 13582 1122 12780 9133 11622 15181 17755 8060 
12097 7772 15092 9037 12009 2119 14016 942 12270 
7880 4595 3446 9963 8855 11777 2632 744 11730 
11587 16243 15470 8044 8476 9795 13913 10327 5902 
5219 16429 16082 3180 4423 1087 2461 5508 14004 
4365 4792 15171 12870 2641 444 15884 9063 15512 
9575 5363 1268 8302 12075 460 7903 14040 17784 
8104 17622 3472 7710 7154 6213 11664 17320 1887 
12037 14906 14481 10228 10173 6511 7169 7173 6805 
17843 9300 2479 5347 7396 3072 320 16017 5114 
10713 2652 8404 7289 7171 3257 5967 6317 13494 
12161 16588 15615 647 11699 4676 13097 4665 11803 
1298 7984 4339 15842 14708 3204 17618 9377 17721 
8481 9017 13853 17487 17820 7261 1159 8947 5963 
10448 1106 2011 1203 10394 15029 10458 17108 11957 
11963 5671 7650 10596 6501 557 2968 9933 10778 
1138 1063 1002 9021 8427 4955 8850 17010 11145 
9983 1567 6609 17827 6476 6682 3121 17039 15433 
9016 5559 4007 6536 14532 8956 4325 4309 11390 
2642 498 11840 15664 3736 5590 6063 17029 5567 
2601 13311 1833 13726 13819 7398 9244 5691 17666 
5060 10861 3594 10553 522 13310 17006 646 8532 
17678 232 1475 926 15192 9149 6775 11233 17404 
2800 11195 6551 10581 15773 15241 9913 5704 13356 
501 17314 1301 9634 13637 9027 2451 1820 6275 
15586 1494 2362 732 12006 17800 15350 4556 9645 
3299 13213 3550 10474 11385 6407 16542 6577 8979 
5788 5000 12953 9873 10254 9136 17543 15571 2590 
9944 9139 1235 3231 5936 9216 7036 13923 5988 
11952 10159 1864 4453 11164 6463 15113 11880 9636 
6091 14558 11754 3403 11104 17374 10249 4250 7633 
3467 17609 1331 15514 17339 14380 13861 15475 1528 
10176 15080 9900 8500 13026 7693 11865 3354 16890 
16182 1774 12152 16751 5929 16666 6098 3170 6235 
10875 3540 4525 17124 7434 9894 6656 13266 9408 
11918 16746 6164 9002 983 4756 1328 17095 12368 
17459 15960 11510 4051 73 3368 12393 14296 14969 
16031 16817 9184 1402 8949 5738 6705 15816 17340 
11583 2444 13148 5548 15592 9011 17449 15180 6845 
13461 14825 7474 11439 17743 8322 11313 7686 13363 
16040 3178 7409 14590 10759 10664 5870 16555 235 
5537 10775 4407 15861 13956 13297 3500 2584 3701 
3919 8617 13095 16152 16630 4739 1188 7746 7886 
5304 13175 17623 12213 10384 16304 2171 2887 1869 
3666 16375 1734 10577 1377 11009 13903 14425 4619 
11024 1034 6401 1604 14663 7232 11535 7952 5283 
14189 293 13423 7192 3082 14733 16481 11673 8091 
15217 8326 15656 17058 11635 16503 8668 3616 17089 
6078 10247 2422 4049 4141 11092 11345 4791 7669 
8379 4398 8633 9453 15781 14935 8339 13716 9115 
14238 11520 3292 12479 13879 16016 16900 15759 9052 
8433 2668 10733 326 12715 14506 5813 15721 14095 
15722 703 13456 14455 16566 8534 17504 15263 12343 
11921 15748 14695 13605 10917 9599 2019 12248 11713 
12548 12084 17835 7608 16997 5882 9367 10543 12680 
10309 6252 6953 6779 7774 10461 10179 9441 686 
12647 13611 13480 11790 8368 757 15276 6568 7066 
10996 12744 3056 7680 13619 6371 5339 12487 1348 
1977 16276 8607 3370 7355 1622 2271 8286 15863 
5357 9061 14654 8653 11757 11656 8068 4262 14889 
780 7478 3652 10098 2577 15548 11615 2415 15564 
2778 15159 12726 4720 7982 5324 11791 11189 17439 
4994 10419 9118 15618 7510 15401 15981 13766 1257 
15288 2203 11209 17667 454 10841 5701 8084 10770 
15472 2486 8975 8542 13373 15083 11419 17650 16215 
12309 16638 14299 9784 414 7184 7143 7560 13647 
11230 8098 1654 13063 7193 3025 15886 6193 341 
17109 14554 4189 11798 3356 1775 13693 15087 10986 
122 3988 16971 13827 2272 12805 15651 1954 15176 
11598 17059 8287 12792 2072 16992 12251 17064 3078 
13762 6375 11844 6245 17102 10782 12291 14773 9018 
8119 6529 9697 7155 13736 17126 16766 996 15319 
12104 8703 6373 13826 11312 17213 1930 15894 8167 
9937 10219 1827 4842 8269 15827 16027 16091 13085 
2125 10372 2263 9335 2228 5979 13899 12372 2239 
16517 14793 15006 12186 2295 12220 13675 14842 4330 
6263 2013 5514 11578 9953 3095 6970 4944 12100 
4443 16891 4914 3464 352 12297 12054 10659 14994 
2175 14702 2995 14512 4229 11472 5933 13251 16862 
13854 17252 12848 10143 2540 15645 2369 9666 13719 
8424 2365 1031 16341 12740 6596 12705 7764 15531 
6643 4046 11794 1145 6284 8354 15372 13496 8012 
3242 10611 9897 15090 11107 7584 1431 11970 12598 
4290 17831 5688 6127 11495 8742 16408 12944 13774 
14871 7381 13947 8881 15554 6820 2147 6686 6611 
15696 17272 3963 11557 12701 17325 3894 10121 5384 
11059 10449 12064 1984 11524 1686 12082 16299 826 
503 12734 9918 6184 15166 7070 17664 15508 4634 
12763 17150 8183 12603 16107 15614 12370 3088 11796 
7064 3445 5273 658 830 3853 3555 231 10623 
15384 7149 193 17627 4956 13725 8524 6381 239 
16930 790 9457 11038 4761 9606 16692 3806 8132 
1753 13714 13706 17324 2755 356 5603 13140 10949 
17018 1638 9995 9970 3970 6400 4408 12855 17514 
14467 11467 4803 3197 2121 15328 1234 12128 3580 
5812 17041 14587 6583 12430 5585 17597 5863 3132 
4719 578 12392 1167 7552 4238 17572 1117 3181 
571 1537 738 7695 1509 9147 6768 1603 14630 
7280 8642 1896 12088 14574 16724 14756 1875 3921 
10638 485 2071 398 15810 10472 442 15775 15831 
11614 1005 13407 12785 6681 14246 15806 17254 1207 
13382 4039 3234 11307 7741 14454 6426 3359 3421 
10881 8289 1153 6802 15685 6569 12678 8712 15249 
15978 7346 14552 17371 5536 741 3611 17268 8182 
5153 370 15596 5867 17675 14338 11788 4546 1594 
17294 4579 12382 9112 12943 2399 14874 2737 1450 
13021 8464 11960 875 10208 9596 11897 263 4329 
14761 17729 9707 998 17736 10940 3784 15803 12067 
6791 8436 1687 611 8383 14098 3064 1769 447 
16800 11168 8162 1302 1363 2701 4065 13396 11712 
15157 3063 3730 446 14657 13138 9143 14659 7339 
6132 4627 16515 8271 8930 10980 17488 17265 6634 
8149 1357 5095 11203 6274 14788 12707 6403 1417 
7550 2183 3070 14678 13223 2001 5121 15751 10719 
794 11393 11841 6920 6117 11442 17613 2790 4984 
5172 5108 13394 16402 9262 7176 1900 400 917 
2714 12002 6173 12247 4500 5515 5122 2237 5926 
7286 11349 3530 1696 14732 4298 13618 2244 4946 
12494 8749 15127 4727 11641 10786 4349 6355 17724 
9082 12436 12887 3515 14295 3847 4031 10780 11017 
7812 13768 4177 12562 9392 11810 5563 9657 2504 
1521 6766 9571 6748 8111 17079 3080 3654 11813 
2117 8499 12513 3719 5916 12432 1160 10547 4521 
680 5338 16501 6254 4307 15476 9043 9683 3989 
7033 3296 4811 11328 15891 2545 15060 12788 3414 
216 12765 6272 4151 17071 4311 5313 605 2074 
9084 15298 2550 5500 6217 10534 2775 13257 6895 
4352 13080 2204 2965 4672 8026 10142 5238 2485 
15167 4881 2040 7759 3696 7656 15400 11084 9236 
3067 12271 3011 2031 16878 9135 7947 8538 14313 
14382 11747 9117 9950 12202 173 2328 11789 5318 
466 11972 3841 3471 7988 9885 7699 10954 12559 
14487 11239 126 7095 16240 2827 1164 11429 15072 
15860 7199 11606 13515 13470 7488 14286 10762 2488 
4534 17253 9499 5146 4474 15238 12832 2735 6949 
14327 2618 11004 13577 1566 1607 11809 9103 3962 
2513 8624 1695 10556 9660 12180 4146 15538 11484 
11891 7582 16118 4115 12555 16142 7134 1732 13865 
1939 14604 11477 7625 15526 1667 15484 16258 15985 
10838 17295 10829 11450 6667 16984 16965 1739 6593 
9099 15474 12107 9372 11126 5374 3756 7859 14490 
13316 15828 11552 9558 13225 9851 7477 14150 10266 
6944 7438 17486 14551 6617 3524 10889 14389 16192 
16570 1811 10203 4021 5927 6519 5574 9014 14543 
16218 5725 2384 5757 995 13171 11353 17433 5965 
6473 14069 9665 5305 13924 5350 3822 11619 8039 
15160 6085 10924 13667 11489 11816 5695 6674 15434 
13235 5221 15480 3686 2822 10791 10769 2744 5634 
14157 17803 14106 379 5955 14291 761 3040 12160 
13194 11262 7429 15930 4989 1409 5212 7965 11973 
12070 5036 9501 9412 4671 15034 1980 13142 6488 
9753 12178 10637 1555 10975 17546 10207 15824 14867 
17290 10858 251 14950 4874 14546 6297 17165 13783 
13418 9426 3012 9603 8047 8695 14703 249 2720 
4038 4721 12402 15980 518 13146 1814 6321 17579 
10271 16104 5881 13901 6873 7670 839 933 14082 
16442 3162 9359 13119 13207 17028 2173 14404 2463 
9440 10190 630 16045 14406 14800 13900 3623 5275 
3726 11169 4270 2403 10019 10466 16095 14696 7363 
1541 11028 16365 2130 17829 7031 9315 16407 15373 
8123 6074 8631 12851 11589 3640 14828 4458 12947 
9303 1699 6955 2225 5186 13787 11229 8093 6435 
14933 8364 10138 6645 10368 16223 12771 7733 11936 
17369 11007 17229 10682 7998 14274 2174 17328 16280 
6541 10974 6472 7419 13672 11445 10477 2711 6313 
17313 10068 16436 12942 12137 1082 12629 12581 1950 
9518 15252 16456 13392 2991 377 10533 7048 10546 
15835 16149 5868 5243 17640 5433 10740 9526 16960 
3911 904 14118 1711 13652 2626 721 13182 10990 
8747 3737 3006 4102 10915 17471 165 14573 14749 
2448 14436 6323 2915 13928 3463 17185 2337 2500 
1327 2218 14667 1436 1783 11566 3753 4548 11278 
9867 3936 1080 17601 15872 7235 11286 3718 16996 
13958 16379 4402 1557 5679 8159 797 5700 8005 
6639 2132 8118 9543 10731 4907 4963 17022 1830 
17069 8212 17013 1575 6704 9189 9809 1915 2972 
5231 8253 5453 13174 10351 10959 6841 6781 12826 
2975 13795 5306 9841 12282 13893 7599 3816 4312 
5615 14846 12 11115 17355 16925 4711 8729 4174 
14326 2336 4644 9353 7649 11037 16193 9281 525 
10104 16739 3593 8441 4475 12665 13510 9309 8199 
17075 10501 9626 11074 1647 1344 12277 12455 17768 
5469 16526 10559 15108 12528 3346 2260 11403 15081 
16581 7995 9625 11904 8797 9110 989 17139 3194 
3601 9745 7214 13399 13986 8312 1854 12302 8460 
12723 3357 7262 7119 16525 12424 9696 16906 10132 
6129 10828 6714 11695 5713 17817 7302 11196 5841 
17084 8657 10244 10760 16707 1253 12497 8593 5177 
3278 6882 10259 5544 2602 13631 462 2059 14593 
12175 16642 17167 7790 12308 17332 10264 13 11364 
11971 4445 4432 15572 16154 6547 10896 3985 6626 
1853 14457 4612 2729 1177 10584 956 394 15091 
3983 8801 3411 15337 9521 15200 3765 3758 14116 
15640 640 6979 5919 7220 5317 11871 1898 4973 
4895 5485 10329 15812 15601 15765 114 2616 7763 
10507 7208 15736 10049 7071 7892 3655 15594 11901 
11953 10918 1605 13020 6788 4070 16129 16196 8303 
103 3209 809 5880 11232 17773 13728 3277 2562 
6560 15013 8782 16362 7907 10033 641 6941 14926 
6966 2844 2855 8701 4913 1803 2750 2922 14895 
8330 1689 15918 10890 9200 4970 7563 8613 6119 
5145 15299 14066 8474 15885 1948 17078 6807 3783 
16032 11725 10369 16119 1941 5299 2817 11132 9269 
5254 4235 17752 8448 3028 15589 10725 3835 15636 
14699 14413 346 17480 16213 8340 9329 17202 2732 
6380 13076 17091 7832 4636 10357 13810 5533 11845 
11159 15408 1292 8540 4131 9124 9252 913 17066 
6196 4799 14284 7603 1303 2856 11294 1449 6980 
4 17359 13571 4071 8390 7240 16831 13993 14816 
4254 15552 5798 6045 3949 5750 14203 7620 8875 
3738 15465 5415 9036 5854 11378 5293 1299 7936 
15794 13184 9593 7052 11034 14502 16767 5789 3284 
17437 6707 4296 6921 7758 5057 14478 8001 15154 
8831 4279 9737 10467 3865 3348 15201 696 16005 
15290 8188 1418 903 256 1123 4397 11939 17180 
93 6890 9581 4416 11776 5886 2680 4036 4181 
17225 15608 1054 1053 15174 12063 14402 1472 7797 
8195 9985 7233 5050 10234 4772 2252 169 13322 
12987 6838 1280 13700 5653 5256 546 902 12958 
2177 9892 6728 8295 8938 4978 9414 12114 11998 
9106 1582 3830 1267 10332 17737 4368 12015 12306 
15938 531 11884 16867 7561 17103 16993 6831 10235 
4124 13195 205 9650 17588 8237 2977 4437 5452 
4632 2052 201 12959 17027 16483 16100 6875 11742 
17243 9009 6790 12732 16392 1186 3015 24 9568 
10510 16183 2085 16926 13824 16462 1719 2962 12980 
5754 3794 16683 15868 6652 15666 3887 10613 4517 
14855 11629 14092 14354 8473 8375 4922 7591 3439 
6892 3546 3035 11885 14186 2420 15383 7408 7981 
1886 15116 12992 683 16490 3899 3709 11929 12615 
8307 12419 4041 5281 5021 1600 16004 4537 14250 
10039 11280 186 15435 9152 7920 4841 10812 7178 
8361 9404 15393 4706 9183 7217 4531 13166 12711 
2882 33 12484 2268 4010 1916 7305 5033 6332 
6016 10025 12970 15745 11804 13038 10427 13932 7547 
11352 13567 9416 14488 10508 8760 5167 17008 3977 
520 6287 5360 8713 6654 15366 2717 17026 13477 
9856 1956 17319 15046 16283 3327 12847 15513 2845 
4599 11876 16564 13525 2646 7360 13972 17780 16796 
11227 11469 17830 16030 10912 10287 8259 13551 16916 
9582 10186 15964 3026 5058 16844 3490 12522 15306 
10809 17096 2387 2400 3798 16725 17050 13764 6948 
7026 6176 15870 2850 14779 7734 951 14242 15010 
16497 15338 7200 6578 4061 17056 10922 10297 36 
16663 6917 14070 13023 4628 5244 10163 10438 5836 
6801 6461 11261 5787 17580 7358 16080 4532 9048 
15026 3469 15507 11105 15017 14619 11608 3539 6228 
2 15213 5766 13198 1378 14726 8426 2884 16353 
6413 7697 9248 4518 17093 9234 2051 4015 16646 
17097 14681 10426 15208 6182 1973 4861 2583 2548 
11887 12820 12999 15191 12651 10768 8888 3225 12672 
11697 10563 1988 10218 427 6318 14068 17166 5631 
14727 9877 3272 3390 11924 6974 7997 9186 8382 
7562 12375 11344 14929 16730 2338 1559 6897 11277 
6691 5076 10520 16440 2619 12952 9465 13279 9792 
387 10972 5685 8095 591 15223 726 3913 9134 
7847 13934 10217 334 1319 12849 10147 4140 3212 
9349 16433 17560 636 1858 14405 14827 827 4260 
11611 5541 3340 3263 13214 12608 1309 729 2116 
17169 9939 140 17616 9609 3287 1709 8359 15542 
11756 12934 5109 5711 4703 2761 2661 16536 9917 
14600 9374 3763 11737 13754 6183 2436 1496 13406 
16206 10052 14961 10199 389 17256 2566 2570 17466 
16034 5125 958 15119 17220 13355 14126 10722 16947 
12155 14977 9033 10746 9059 274 5010 12492 6870 
17592 3631 3613 14533 365 6259 1255 1815 7844 
5093 94 8074 2122 9663 12260 13008 15600 9909 
1293 12933 3948 355 5012 15137 7067 7762 17662 
1781 11610 12557 5938 17141 15820 5087 16600 9540 
5502 2932 5323 16869 15147 3621 10021 14262 1612 
4569 9204 9965 10321 8228 12589 5654 4763 3774 
3877 12965 6627 14039 9431 6765 11303 10017 5512 
3493 14097 119 11993 14466 5028 477 3010 7838 
896 1812 1618 7209 11491 1835 4987 7384 11920 
6534 11407 3189 592 3249 7896 16246 13712 1824 
15036 10155 2481 11624 15830 4468 9874 2763 3111 
740 6564 15374 13041 13601 12379 4911 10184 11474 
2322 2193 4142 11994 9337 6620 3629 1001 16648 
7277 3193 7350 16281 14298 318 8768 213 832 
10631 9057 6537 10748 12686 11843 12592 17242 12687 
6211 13522 12221 15380 1487 5229 10734 13296 17556 
10929 4387 16870 5367 1767 4286 6673 11355 5098 
3185 16836 7041 2989 9736 17293 6087 1996 12135 
6635 16764 1787 7447 6212 9425 11243 5214 2610 
16398 6243 11881 12783 3077 9936 11210 13970 700 
12914 11448 7331 14555 8431 3901 3563 11120 12414 
15971 11018 4193 6140 16323 8351 15182 15169 8951 
10116 9463 8444 3482 7594 12324 5637 7897 8350 
6133 494 6048 8347 10650 16607 2697 55 11170 
567 806 11347 9878 949 9150 7538 5694 16961 
3961 4276 9653 6632 9741 3068 4714 1754 13781 
7527 733 5175 1532 15477 16934 734 13234 8301 
7351 3438 16295 14345 4484 17834 2124 2931 9840 
1397 10124 6751 12599 17492 195 1265 13876 285 
3926 16447 16522 11821 10464 17759 11273 8051 11825 
3836 4117 10087 9158 1352 16860 3658 8689 8181 
4980 2876 10879 3787 5774 1227 8772 2489 6854 
17402 16077 1163 10880 5242 14916 4004 15874 4331 
16370 17598 6295 15941 2007 17481 10174 5605 12573 
52 1606 3183 14288 9290 6135 16879 15365 1339 
5465 5961 9725 15896 8032 8166 9090 16662 1461 
6901 2917 11751 13687 8989 8819 14868 15968 10183 
16887 12979 5924 1004 12960 4133 10285 15077 8478 
5001 10455 4489 1000 14974 2101 6448 11940 11600 
9352 3288 1928 17247 4163 14498 11207 2759 9155 
7074 9960 14084 5134 13823 1736 9217 1725 12129 
4363 16956 8131 921 3764 1755 8788 14420 3651 
10200 14539 14046 15005 16737 8726 12747 1500 17353 
13528 4035 4974 10744 7503 3869 14153 10442 13910 
14055 4753 16575 13791 16533 17847 9604 8664 2024 
7116 7218 1140 16834 12896 10498 3092 11246 17396 
14360 12026 15845 15551 6320 15993 668 14673 11529 
6406 1780 13077 13941 15953 358 11427 9649 7165 
2364 16697 14704 2355 13821 5246 11497 13393 16814 
2795 13778 14461 1746 4168 291 7257 5649 7975 
17533 17669 8230 15404 3163 3032 14397 17051 11823 
10691 11592 14890 13462 5019 16973 10246 12276 7862 
3813 8493 11851 10010 8974 1415 8009 7796 15102 
12226 16699 2094 11672 14304 5183 15684 360 4042 
1101 8995 9902 606 7399 7210 15251 14169 10393 
11814 12311 6700 816 1342 14469 14143 14878 12787 
9578 10380 12837 4487 13780 10157 490 17198 9361 
4441 2038 1430 16583 9868 261 7922 7604 719 
6906 4767 15451 6114 9253 7058 10594 9642 945 
7292 1441 49 12836 6234 16311 7555 11647 5303 
1129 10 3106 6588 2198 14920 15945 13788 8588 
5676 222 11820 13968 13123 16457 7112 339 14088 
7427 15496 11906 7778 1351 12619 2176 13572 7788 
14725 12478 13959 12130 15686 13210 12199 3285 156 
886 17656 9880 1680 16611 1355 15423 3873 14848 
9735 12378 10957 12703 811 11245 1975 481 5053 
15622 7015 5181 15598 3049 765 17686 17218 431 
16388 5752 12830 2164 8219 16114 16078 13078 5518 
14912 11329 14340 236 17392 117 11148 16126 14894 
14606 4240 16097 3186 15729 16346 6535 13032 1076 
7520 16268 6056 12495 1836 6836 14383 919 4128 
10699 11874 7326 3175 9628 10526 12946 812 8684 
12904 7911 14011 5291 4460 8133 10677 5941 685 