# vtk DataFile Version 5.1
Generated by LIGGGHTS
ASCII
DATASET POLYDATA
POINTS 17850 float
-0.00512847 -0.0288821 0.00261721 -0.00270206 -0.0291785 0.00258891 0.00212909 -0.0286554 0.00265985 
0.00480199 -0.0289476 0.0025425 -0.00697108 -0.028509 0.0030098 -0.00415708 -0.0277923 0.00270166 
0.00585027 -0.0285908 0.00274545 -0.00999013 -0.0276262 0.00280802 -0.00831638 -0.0281916 0.00249221 
0.00302526 -0.0281508 0.00293497 0.0089446 -0.0279542 0.00284665 -0.0110652 -0.0271984 0.00269704 
-0.00706529 -0.026274 0.00227054 -0.00455158 -0.0267062 0.00265874 -0.00343856 -0.0263819 0.00285144 
4.95489e-05 -0.0264717 0.00302156 0.00703581 -0.0278293 0.00246699 0.00785404 -0.028192 0.00329617 
0.00945582 -0.0267286 0.00285155 0.011115 -0.0270888 0.00345294 0.0119661 -0.0265277 0.00266265 
-0.0103628 -0.0263198 0.00240419 -0.00414126 -0.0255057 0.00265126 -0.00088697 -0.0258246 0.00266393 
0.00836367 -0.0258454 0.00273403 -0.0113674 -0.024681 0.00244284 0.000277758 -0.0251384 0.00314133 
0.00768937 -0.0253266 0.00346381 0.00974558 -0.0255679 0.00290754 0.0108027 -0.0263361 0.00225131 
-0.00620288 -0.0243631 0.00281499 -0.00326935 -0.0241005 0.00264601 -0.00128496 -0.0240993 0.00281219 
0.00874787 -0.0247896 0.00273127 0.0114707 -0.0255171 0.0031747 0.0148889 -0.0249653 0.00340731 
-0.016754 -0.0241182 0.00251863 -0.00838116 -0.0240232 0.00251768 -0.00720899 -0.0237279 0.00247404 
-0.0022313 -0.0233608 0.00283816 -5.16208e-05 -0.0240232 0.00286113 0.00426296 -0.0243646 0.00252275 
0.00658176 -0.0236524 0.00247029 -0.00485083 -0.0233444 0.00272221 -0.00328539 -0.0227727 0.00316358 
-0.00114793 -0.0227626 0.00275828 -7.16805e-05 -0.0228615 0.00308423 0.00947143 -0.0235763 0.00289009 
0.0109243 -0.0243362 0.00206105 -0.0175732 -0.0208257 0.00170456 -0.0155269 -0.0216557 0.0019019 
-0.00971058 -0.0226823 0.00249087 -0.0055917 -0.0224486 0.00276681 -0.00430673 -0.0223351 0.0027163 
-0.00306818 -0.0216846 0.00253304 -0.00199203 -0.0220445 0.00294487 0.000971869 -0.0221103 0.00336147 
0.00392855 -0.0232696 0.00233696 0.00860564 -0.0223705 0.00285381 0.0106329 -0.0216124 0.00341467 
0.0123906 -0.0219905 0.00317632 0.0156782 -0.0212525 0.00301984 0.0192941 -0.0217668 0.00298632 
-0.0017718 -0.0208819 0.00272072 -0.000223251 -0.0217614 0.00298255 0.00254037 -0.0223466 0.00281389 
0.00461307 -0.0216842 0.00275119 0.0081206 -0.0209315 0.00275714 0.0125215 -0.0208085 0.00347387 
0.0133058 -0.0213635 0.00296975 -0.0150976 -0.020463 0.00170381 -0.0141944 -0.0199215 0.00248876 
-0.00523275 -0.0205058 0.00239674 -0.00407614 -0.0209748 0.0026092 0.000590145 -0.0210917 0.00266697 
0.00173546 -0.0212808 0.00307268 0.00299512 -0.0214021 0.00275974 0.00671819 -0.0207013 0.00331061 
0.00898238 -0.0213886 0.0031905 0.0111812 -0.0207669 0.00283697 0.0145957 -0.0209298 0.00318777 
0.0170022 -0.020645 0.00288436 0.0185015 -0.0209158 0.00274162 -0.0197774 -0.0198549 0.00222726 
-0.0189352 -0.0175454 0.00188246 -0.0168859 -0.0196534 0.00177849 0.000301098 -0.0200955 0.00300189 
0.00146027 -0.0203263 0.0026107 0.00444074 -0.0201606 0.00295723 0.0158361 -0.0196944 0.00312078 
0.0179108 -0.0200558 0.00323872 0.0199318 -0.0201432 0.00242273 -0.0168866 -0.0184603 0.00209179 
-0.0146781 -0.0186137 0.00127649 -0.00416375 -0.0199917 0.00211919 0.00204377 -0.0189255 0.00305485 
0.00323118 -0.020381 0.00333076 0.00561495 -0.0203908 0.00265868 0.0069591 -0.0188345 0.00326822 
0.0093102 -0.0195675 0.00297326 0.0123765 -0.0185068 0.00286781 0.0169531 -0.01928 0.00310101 
-0.0204038 -0.0181766 0.00163852 0.00585598 -0.018355 0.00307924 0.0104517 -0.017953 0.00233679 
0.0146643 -0.0179794 0.00325594 0.0157864 -0.0184986 0.00318165 0.0181262 -0.0189852 0.00310006 
-0.00377021 -0.0171611 0.00201112 -0.00180758 -0.0177559 0.00288995 0.00336852 -0.0174384 0.0029427 
0.00438094 -0.0187053 0.00313425 0.00896557 -0.0174717 0.00280586 0.0200797 -0.0172177 0.00275556 
0.00578013 -0.0170343 0.00286988 0.00783275 -0.0163061 0.00327253 0.0139468 -0.016957 0.00342665 
0.0186377 -0.017007 0.00278797 0.0194806 -0.016506 0.00218393 -0.00423789 -0.0162066 0.00233153 
-0.00111258 -0.0170935 0.00242065 0.00451733 -0.017405 0.00269443 0.0063534 -0.0157443 0.00297859 
0.0116904 -0.015864 0.00262717 0.0174946 -0.0170732 0.00280545 0.0226296 -0.0169169 0.00177637 
-0.00137162 -0.0160333 0.00216464 0.00322764 -0.0153015 0.00231511 0.015385 -0.0151888 0.00242586 
0.0189034 -0.0149409 0.00246436 0.0198672 -0.0154827 0.00210916 0.00549001 -0.0142579 0.0026246 
0.00653041 -0.0145369 0.00293983 0.00864203 -0.0152552 0.00274033 0.0102684 -0.0137666 0.00237588 
0.0115579 -0.0140381 0.00251037 0.0125858 -0.0136677 0.00214223 0.0161912 -0.0144739 0.00241938 
0.0197723 -0.0142903 0.00212952 0.0214659 -0.0158553 0.00200757 0.0229754 -0.0152864 0.0021457 
0.0255218 -0.0146062 0.00216868 -0.00920848 -0.014268 0.00112207 -0.00465247 -0.0136645 0.00214777 
-0.00215348 -0.0139475 0.00237195 0.00445012 -0.0143923 0.00256251 0.00652024 -0.0133392 0.00288146 
0.00901668 -0.0126303 0.00218383 0.0111717 -0.0130694 0.00192165 0.0138663 -0.0136996 0.00216933 
0.016318 -0.0129895 0.00191393 0.0216515 -0.0146863 0.00204964 -0.020189 -0.0143749 0.00216444 
-0.000264942 -0.013743 0.00265227 0.00219496 -0.013066 0.00340685 0.00510057 -0.0133275 0.00251305 
0.015461 -0.0111188 0.0013027 0.0191003 -0.0130972 0.00202739 0.0245969 -0.0138746 0.0021812 
0.0260579 -0.0129641 0.0014388 -0.00715286 -0.0121633 0.00160118 -0.00352917 -0.0123025 0.00258705 
-0.00225815 -0.0126623 0.0022685 0.0054719 -0.0123296 0.0026822 0.0162999 -0.0118625 0.00233914 
0.0212329 -0.0125091 0.00185192 0.0228981 -0.0128143 0.00192035 -0.0185581 -0.0131989 0.00156542 
-0.00956856 -0.0118893 0.00188924 -0.00647561 -0.0114558 0.00238341 -0.00143301 -0.0119921 0.00236913 
0.00251256 -0.0110592 0.00263782 0.0261855 -0.0117714 0.00205399 -0.00451202 -0.0112259 0.00221436 
0.000303561 -0.011313 0.00233181 0.00142972 -0.0110094 0.002008 -0.0188516 -0.0110257 0.0018398 
-0.00219858 -0.0100251 0.00310345 0.00281596 -0.00981573 0.00323379 0.00353951 -0.010405 0.00257317 
0.00670541 -0.00974671 0.00210947 0.020289 -0.0100367 0.00126053 0.0237689 -0.0105418 0.00194448 
0.0248414 -0.0100556 0.00202642 -0.0233847 -0.0128 0.0017692 9.37133e-05 -0.0100971 0.00224928 
0.0259782 -0.010247 0.0018274 -0.0268125 -0.00918161 0.00129883 -0.0251377 -0.0103718 0.00198848 
-0.0210764 -0.00932931 0.00231466 -0.00602385 -0.00913661 0.00196874 -0.00393152 -0.00901161 0.00286942 
-0.00187403 -0.00906076 0.00234799 0.000146577 -0.00901548 0.00294385 0.00103832 -0.00798166 0.00246832 
-0.025643 -0.0093769 0.00146868 -0.0226743 -0.00933378 0.00197099 -0.0197777 -0.00879955 0.00177959 
-0.0169696 -0.00920248 0.00222838 -0.0148918 -0.00827977 0.00276102 -0.00630321 -0.00790288 0.0022312 
-0.00284082 -0.0085117 0.00301208 -0.00118548 -0.00801101 0.00321335 0.00209834 -0.00700811 0.00259403 
0.00306762 -0.00766367 0.00257436 -0.0179644 -0.00841267 0.0023392 -0.00730712 -0.00786972 0.00257339 
-0.00432323 -0.00784598 0.00252413 -0.00231226 -0.00748919 0.00311665 -3.74006e-06 -0.00782231 0.00302367 
0.00465122 -0.00795933 0.00221535 0.0277212 -0.00682053 0.00233399 -0.0280524 -0.00834772 0.0020307 
-0.0222748 -0.00696404 0.00174891 -0.0213025 -0.00758286 0.00207888 -0.0194771 -0.00773626 0.00261831 
-0.00297644 -0.0066224 0.00242614 -0.00129497 -0.00672101 0.00315699 0.0010773 -0.00616965 0.00296301 
0.00607407 -0.00621698 0.00199606 0.0286609 -0.0061595 0.00238873 -0.020265 -0.0068159 0.00226769 
-0.0174763 -0.0069431 0.00264109 -0.0143379 -0.00602672 0.00253449 -0.0118817 -0.0048379 0.0022326 
-0.00601976 -0.00694053 0.00265892 -0.00377073 -0.00545608 0.00278191 0.00131949 -0.00500039 0.00288043 
0.0274965 -0.00572791 0.00213908 -0.023016 -0.00565619 0.00186662 -0.0202992 -0.00550592 0.00223321 
-0.0187815 -0.00646579 0.00274354 -0.0157137 -0.00531163 0.00289618 -0.0100012 -0.00427796 0.00237727 
-0.00829801 -0.00508328 0.00234641 -0.00216165 -0.00540996 0.0026591 -0.00108915 -0.00564058 0.00296015 
0.00051477 -0.00431869 0.00312177 0.00344351 -0.00426086 0.00196663 0.0289622 -0.00507655 0.00245998 
-0.0180086 -0.00477952 0.00258047 -0.016548 -0.00401525 0.00264667 -0.0111656 -0.00395589 0.00237872 
-0.00871169 -0.00303234 0.00229061 -0.00377775 -0.00431332 0.00289276 -0.000901553 -0.00346545 0.00241623 
0.00123551 -0.00340866 0.00308285 0.00573445 -0.00472085 0.00204034 0.0282794 -0.00428908 0.00216751 
-0.01401 -0.00395275 0.00285572 -0.0126353 -0.00390617 0.00258871 -0.00290327 -0.00245824 0.00290103 
0.000188363 -0.00324979 0.0035757 0.00319779 -0.00313495 0.00301391 -0.0118962 -0.00311266 0.0026495 
-0.0106618 -0.00255861 0.00262251 -0.0073563 -0.00197643 0.00233313 -0.00387157 -0.00182685 0.00261279 
-0.00153628 -0.00254942 0.00259201 0.000376359 -0.00224178 0.00308432 0.00200562 -0.00254715 0.00316218 
0.00687442 -0.00352676 0.00240185 0.00814315 -0.00357963 0.00208912 0.0102962 -0.00386103 0.00215404 
0.0129946 -0.0044528 0.00141056 0.0160764 -0.00308897 0.00219955 0.0268851 -0.00317158 0.00179306 
-0.0140167 -0.00202077 0.00266781 -0.0107468 -0.00146117 0.00220393 -0.0079222 -0.000916743 0.00250388 
-0.00495807 -0.00199762 0.0026323 -0.00303823 -0.000899551 0.00284019 -0.00225794 -0.00167187 0.00257679 
-0.000736859 -0.00172258 0.00264642 0.00115051 -0.00129784 0.00269017 0.0050321 -0.00197328 0.00257578 
0.00619268 -0.00231191 0.00218567 0.0115652 -0.00265827 0.00218791 0.0170677 -0.00286709 0.00182627 
-0.0140091 -0.00075267 0.00297826 -0.0118876 -0.00207176 0.00301651 -0.00987495 -0.000598673 0.00272678 
-0.00565007 -0.000936248 0.00242487 -0.00455173 -0.000954984 0.00266836 -0.00147142 -0.000867535 0.00229061 
6.93682e-05 -0.000701298 0.0028237 0.00243665 -0.00079825 0.00293715 0.00398466 -0.000769441 0.00231269 
0.00530554 -0.000907353 0.00306762 0.00853972 -0.001775 0.00249282 0.01179 -0.00136447 0.0021674 
-0.0205557 -0.00108085 0.00239996 -0.0170656 0.00025131 0.00251217 -0.01509 -0.00106744 0.00302703 
[...]
POINT_DATA 17850
FIELD FieldData 6
id 1 17850 int
1173 11181 6557 5276 17730 4184 15919 1543 733 
4725 132 15543 16910 2098 17707 9597 15167 5238 
2489 16682 11421 1251 2650 1397 11749 12147 14345 
15093 11356 2550 2931 12481 1329 15011 14313 14125 
16066 11818 2074 2484 14565 11078 6425 7759 1227 
17626 15282 2473 11525 16950 8788 4811 8280 10534 
16860 3926 12558 15966 15207 16965 4429 16267 7765 
17541 9941 6372 15727 12310 6817 6149 2022 5605 
6215 15903 17297 17131 17282 803 16518 13577 4754 
14797 142 9740 15691 13867 9443 10028 9330 7206 
17614 4881 3686 15583 16142 8966 8772 9573 13133 
17759 2781 5086 15430 12916 11606 1736 5542 16634 
4780 10428 12180 10464 11751 6296 1190 11831 13211 
1667 12663 5725 16737 11246 13539 4228 4873 11962 
14982 12587 17839 816 1741 6829 7796 4491 11100 
13472 6328 11972 13142 5183 16104 5748 5986 8683 
6995 5757 12204 16365 16400 707 10837 13925 10455 
2618 5053 995 10995 10203 5772 16396 4649 2572 
6351 10549 3290 12611 8364 12669 17755 3152 11329 
1082 5037 2000 16042 6323 17476 16996 497 12402 
6105 6815 7158 3844 12178 4410 1122 10099 12190 
8502 11971 7348 12340 4595 15615 3228 11476 7995 
4253 1380 17826 3514 13958 1073 4445 17601 621 
8105 13684 7908 15884 15994 10731 6264 17152 7048 
16968 101 702 3706 10387 6213 1071 640 4625 
755 5660 17075 856 4102 16649 9607 12282 12460 
12037 17139 17185 9153 5671 3973 10178 14249 2011 
9142 8783 10264 11185 106 772 1203 11481 10497 
1213 8663 4475 6153 10483 647 6714 11957 38 
10896 7036 10933 12723 16196 6118 4799 6136 10004 
5317 9309 17412 14986 16763 16035 13076 15040 10704 
6869 16213 17194 5713 16202 15586 13510 13683 16154 
557 11093 6728 9625 5977 8407 17222 11745 12626 
17727 17683 16900 9614 14418 5548 15287 2750 11669 
14906 232 1055 444 14402 17512 1169 10584 8743 
17752 2991 17437 12981 14116 14963 6656 5440 9139 
17103 10348 5378 5356 6071 14751 3378 2102 16683 
8195 2922 11195 12480 2652 3121 6780 15171 11884 
14494 519 11345 16477 4815 6711 15960 7474 2252 
11164 4995 3899 2562 14449 10944 15804 15589 14983 
12711 15781 996 14378 14040 8269 16304 8433 17349 
11226 4720 3923 17118 13764 12220 10213 12976 9862 
14486 2882 2420 6793 5178 2748 13644 5354 240 
4531 2619 12283 11227 15656 9234 14773 7981 12372 
12021 1145 1883 5872 11791 14068 10449 13496 16153 
239 17064 4718 3464 6121 11407 9606 4719 14702 
16242 17662 2761 9877 17254 15956 2191 16345 3621 
5506 3212 17818 3763 2399 11120 13534 15479 12088 
14362 16323 12389 10734 11524 5312 446 13460 1579 
6259 12342 17763 10469 11002 11393 12519 8485 5172 
11349 16954 10252 12968 17046 15127 538 4984 2990 
4778 6490 5247 8111 15922 2277 3598 17143 7559 
16256 15476 17452 11347 1754 6748 11813 11584 1942 
15796 426 6762 15060 13516 605 15477 7885 8737 
1590 13710 15062 17499 6288 9610 17648 9840 2775 
12923 15891 2545 9987 7351 15679 2005 8933 8063 
11273 5202 5146 1532 13876 14632 3692 15047 7723 
2917 10022 1056 8941 1648 4672 15136 9572 1276 
14112 3829 13018 12228 11379 10041 5265 6272 1352 
4806 10867 12632 14192 2791 11084 2954 3479 15039 
5622 785 17303 2406 16447 16546 5697 5858 7632 
9415 13533 5682 1000 17599 17366 14813 735 10916 
5961 15246 10827 3866 16431 2837 11789 1601 3600 
5161 14084 12010 2966 12332 6487 12280 6006 10482 
7589 13470 15400 822 13559 7189 8488 9448 3658 
16370 8719 3713 10418 10285 16339 17295 5648 6804 
11873 9135 126 17156 1217 13308 7535 6726 1659 
6735 358 2407 11821 2425 15846 544 17299 7947 
11004 15298 9352 10168 1141 7259 10174 2511 15928 
4520 1004 12061 9217 13980 13895 7316 15853 14158 
1732 5143 8316 1725 5969 6854 3672 4534 749 
17377 15835 17486 6018 16159 17286 17253 5695 11257 
3813 10164 12947 5134 15570 17545 9012 6039 16258 
14882 3962 12160 11904 7257 7222 12245 8583 2920 
13043 5272 1680 5275 8055 8199 13146 8854 9684 
11816 6125 17051 17471 17069 1887 14757 153 4792 
7363 16379 12590 5036 11353 8212 16149 11917 11973 
2988 11336 5222 117 14950 4362 6488 16243 16837 
11327 17025 9426 11096 16389 10828 2656 11572 12476 
2174 4544 11888 6689 3933 17165 5544 15872 1870 
10458 145 6056 14274 4716 14469 671 10546 3065 
14231 5508 6405 12101 12009 4711 15021 13286 9748 
6669 13463 16274 17352 7772 1571 11975 12014 9160 
11315 8635 10990 16199 15888 3726 2287 7235 17013 
2119 10798 7124 5875 10987 286 17400 13591 6704 
17558 9724 1401 7326 15963 6976 14768 9661 937 
15402 17725 1915 7799 5609 17423 8577 16017 11778 
15728 11660 3955 6275 435 9195 1136 10486 8916 
8223 4267 12070 4432 12497 17768 17508 11732 1080 
12568 15969 16259 7319 11988 6979 16694 13557 7616 
13553 5306 17031 15029 17298 13 14780 8777 10450 
7301 472 9149 4913 14507 15856 5864 10394 13678 
5038 4423 13280 17248 9809 7444 4127 7220 10093 
12093 13963 14879 13767 16723 8441 13893 17811 15572 
9626 16955 13020 6966 5988 14431 3278 2336 5180 
7903 17773 12244 6784 14214 17658 14942 16508 15418 
10918 15559 7836 4402 12870 7797 5998 6420 13653 
987 7377 12097 13494 4086 10743 15885 4023 11890 
17039 1472 11605 657 498 8850 16542 11862 5929 
522 11325 11664 17591 673 10232 11703 3467 989 
5065 4197 5299 13679 8221 14985 2815 17057 6179 
8717 8826 17320 2179 10652 2298 9148 8532 646 
15192 12006 7832 15561 5590 3028 7171 16906 2461 
15013 11803 13569 926 8015 6164 9717 16308 910 
133 8593 320 8168 16182 17835 3361 14699 4266 
3617 2901 14481 942 9731 5321 276 10812 17721 
3736 9873 13356 10132 7890 13310 2362 8091 5481 
13351 11143 16119 14142 14391 3072 17288 8104 1123 
5114 17487 11776 9613 4014 8474 10977 2444 9305 
2963 6872 3887 17319 5908 24 15722 10096 4131 
4368 2171 4888 1400 7081 12368 1774 1593 11629 
7686 1652 6317 16406 15748 7570 15290 13369 8667 
1936 17609 9682 11280 4933 6865 7232 13175 17480 
3540 272 11935 15446 15116 11939 3342 9599 7547 
11863 5316 12479 17243 5570 13956 6953 13972 11149 
7193 7360 3383 2341 8368 12666 10996 1377 12118 
11419 15306 10781 10782 8903 2778 17780 17026 3128 
15012 8703 2203 10973 12569 2875 9118 15014 1039 
11209 1514 10841 15083 4290 14889 8059 15645 1616 
17830 6644 4994 16663 860 3366 10025 3377 9386 
3970 15784 5109 16725 7381 11442 9018 5323 10121 
4731 16091 9697 3520 6654 3553 17166 9996 8653 
1946 13663 9918 8431 17371 10520 15900 5688 9374 
8274 7518 11737 7346 8392 14601 1984 3584 10952 
15166 12610 5596 11844 3088 10892 6583 2790 12589 
17324 14732 3697 5062 8276 4500 6117 2676 3077 
9147 17592 17413 8289 636 305 5034 2804 17242 
365 2997 5169 5515 11679 11881 1357 4911 16624 
15775 15862 4931 2312 3454 14657 1199 6067 3613 
2139 16303 7812 1167 610 4946 6133 352 14086 
8347 14132 6458 17605 6493 2012 12730 15169 14536 
12374 2487 14857 8823 6254 2081 9741 4899 7808 
3989 10705 7225 2126 11486 1304 16295 9040 13978 
12347 8902 11665 7183 2113 1424 17635 10386 4278 
7771 12788 9794 1908 6217 10001 6457 10790 500 
7743 14281 9376 734 4490 12595 3841 11570 12573 
386 1007 21 11593 13278 16368 16781 5633 13257 
666 5492 10744 5774 7533 4704 8026 1109 15616 
11477 15206 1923 17067 6664 11249 11562 10862 2161 
15932 14360 12984 12656 3291 4993 14661 2786 13785 
6130 3891 1574 12825 2007 12029 16940 14776 17245 
5407 17629 8495 12202 2965 599 14477 11455 5675 
17481 3344 2446 15538 7898 347 13685 12766 6001 
13270 12688 11654 10183 3471 12504 5895 11594 4717 
5318 13383 16065 15675 17805 7095 14384 15016 16556 
4559 12197 14270 15941 14265 12960 504 4146 13193 
15551 3543 4677 10815 12832 5519 3438 9054 2328 
8876 17090 4494 6901 1339 4430 1197 3308 9499 
16801 5092 5449 4474 14392 173 10954 3897 14746 
16575 13823 1566 7446 17426 11126 7503 11256 6050 
7978 13941 10442 10840 15881 2836 332 12542 5106 
13088 13891 11812 6367 4464 17353 8721 16749 11450 
12052 10951 12467 5002 16094 699 7488 7625 17122 
8181 1500 14811 65 8142 10718 8363 9947 10998 
13599 16150 16984 8726 6248 3338 4405 14153 10969 
17668 166 15580 5341 14055 17159 10586 6795 9940 
5480 1928 13462 15238 11529 15480 3940 14113 3092 
15526 13067 2488 12073 13674 5505 13330 6244 1780 
14956 10682 10499 14110 14713 14604 17036 17448 14006 
9087 14382 13950 11497 15325 8272 15985 7021 14551 
3756 5351 17828 7239 4753 10423 17402 14358 9099 
16567 12110 14397 7427 12942 11301 3042 7859 15102 
3590 12747 7392 14088 8797 5847 1395 11695 2762 
5599 3714 7106 7210 1939 3524 14173 17579 16320 
16388 8546 14897 606 15953 4465 721 9064 3304 
3032 16371 12502 2383 13753 3301 1797 7599 5795 
15990 11388 15788 1430 6836 9810 6781 11366 10773 
12345 3194 10501 17198 7555 8496 9440 11116 5749 
6237 3497 5834 14933 4560 1408 13625 9628 10610 
12665 13419 7121 10831 1814 12826 16456 3780 17531 
4053 11906 16170 8982 10368 16588 8082 12642 14340 
13207 2638 2475 15980 15052 5179 7419 9563 8152 
14224 8318 6965 992 17151 3149 8715 1018 13859 
932 11725 8855 14636 17104 8522 11215 5946 10637 
3226 15451 9420 7872 7011 10690 11765 12802 15457 
9303 15706 797 2729 1281 11016 9771 9038 6610 
8250 13092 13267 13036 1575 4190 7376 1557 821 
1647 15512 7984 14532 15497 8571 493 3602 8928 
7221 16367 17173 13072 1025 17806 3462 16679 14979 
7606 7268 15902 868 86 11196 10398 17817 14926 
7038 3753 1937 7138 14022 12056 9867 16407 1510 
17023 7701 14366 15462 10334 3255 9467 5925 1572 
9963 11777 10265 10290 12314 5390 2302 8872 12821 
9968 8503 4648 12025 8887 17083 3816 14016 2968 
6941 13923 11338 585 5444 5139 8456 13392 6155 
7789 537 3716 7003 1563 16050 12151 16907 7476 
15882 12050 16168 6861 16146 15437 1297 10104 883 
8845 13408 3593 1087 4629 14120 6267 5919 16485 
7309 14445 4339 3616 8406 9353 7804 4553 1036 
14162 6517 9281 7633 14764 5531 16130 5626 14278 
12182 6511 5936 6980 13544 838 17459 4833 7784 
526 9145 14388 1503 15200 3277 15671 6300 11953 
7553 11357 2992 9137 13511 7936 16360 13049 14708 
12201 17563 6882 5810 12528 4018 10249 1106 2758 
12161 16470 7907 15624 7157 7650 900 13179 17382 
10966 2479 9300 6723 5504 9837 462 3381 5902 
15780 5419 7196 4700 1212 7861 8492 8306 9069 
340 8782 13889 2215 1074 2426 15241 10259 3867 
1320 9700 13852 14060 5967 13219 5624 4104 1475 
6536 1299 13755 6233 2668 15091 8390 7262 6247 
9913 3368 9675 4715 10229 9893 17309 14891 5415 
9216 11378 5293 6911 5840 3348 15205 8302 6078 
9256 15812 6806 3854 17827 8404 16642 5798 16666 
11901 6560 1494 8326 732 9892 12275 746 3776 
10577 15664 2508 1465 14215 14969 11403 2451 17332 
11184 14479 7434 3505 7029 16746 11515 11635 15694 
8295 15180 956 12648 10026 73 3257 12057 11194 
4284 7603 3644 11583 16566 7561 15819 6407 3636 
6091 5937 12412 10375 9688 4364 9011 4841 13297 
7375 5120 4932 247 14354 8617 3170 17848 8774 
5750 15648 5559 10384 8215 8317 17449 1734 4517 
4199 7002 2581 1620 11060 16874 16117 16004 2422 
4067 15508 12548 9201 12008 6846 17587 9275 13456 
9565 15336 3804 4990 10247 12248 14855 13363 15149 
4036 3178 13441 12297 7275 6884 4956 11236 1622 
15472 17650 13509 3050 11673 17457 13877 14448 14554 
13085 11921 17231 13964 12032 14115 12962 7680 4051 
17743 17256 15934 16524 5033 4017 6016 16020 16945 
4951 7066 11352 9175 9635 12473 4572 10254 9474 
4012 7982 8543 17807 5289 10326 4426 1757 1369 
14311 12104 1654 6938 9937 36 4447 9784 8119 
8668 16730 15313 14154 14538 10627 419 2717 3380 
2530 15006 8314 2051 4914 4912 12291 3483 12673 
16913 12076 13745 13063 1115 1926 9094 3247 1362 
9272 13023 9719 17061 12811 3652 12734 6917 16796 
11757 13766 15554 9515 7793 1319 12398 1600 12090 
5324 9666 8016 10337 9152 3192 14262 10490 12370 
12994 14480 11059 15276 8068 7155 14586 14439 7149 
12067 10810 13053 3272 4834 3202 14874 12678 389 
16854 13550 4204 17059 3730 12072 1638 1309 4176 
3090 39 13007 3779 13064 7562 171 16519 16027 
11970 12128 10659 17439 11611 15621 10363 2737 12933 
9263 16107 1184 9112 9966 7384 9874 16039 999 
14939 13719 5586 6140 10686 1835 17041 5926 2237 
11307 9732 3132 5575 9265 17537 2895 2753 1016 
11895 6211 2610 398 10321 5028 5229 2714 4298 
150 13343 1509 6925 13224 16711 578 14861 14468 
14394 5576 11648 6721 10780 3745 14375 14205 12687 
8149 14381 7101 5153 6236 6426 13613 11170 11712 
6509 6499 4801 1291 3268 8637 12562 3482 6173 
9447 13216 11727 8078 16769 5591 266 11610 12436 
13781 11687 15214 3823 3741 6554 55 806 12298 
15048 15716 16985 14646 8350 8255 13618 12324 16865 
12387 7840 11637 8024 5619 5912 7329 11359 11866 
10204 11176 9777 3416 12731 1092 1333 12773 8356 
3023 8544 11685 10124 16381 11328 16738 4752 452 
3047 10582 12566 13842 8538 16884 7269 16742 14199 
11188 9013 1728 3561 14020 16944 17802 10845 17809 
10732 10302 14903 11579 3187 2598 1014 12399 4161 
7450 4027 17357 17071 5405 2204 9158 8948 13245 
10100 4509 12758 52 12765 15968 15898 6220 11574 
1678 2048 9084 15492 16872 5051 7418 13019 16428 
7243 13971 16240 3492 13275 4353 6201 8641 2483 
10762 7493 1069 8568 2201 7254 9490 2018 5008 
3457 6998 14683 7063 8689 14286 9872 4390 13307 
10888 10233 9504 13410 3011 2031 16879 9240 12919 
12988 12023 3733 8378 5070 12264 16025 5558 2097 
2936 9553 285 9122 8766 12609 12800 11005 10834 
10142 17368 14511 7204 1308 17310 16629 10876 1695 
9660 2101 12869 1224 13515 9637 405 16439 14379 
6348 16562 8331 1607 13040 3436 14865 7751 6406 
13139 4690 10556 7256 14255 9695 16298 4472 13883 
15951 8989 11281 4735 15908 6456 14539 7699 12482 
8809 16797 9254 5364 12612 14123 16640 15845 14245 
13687 14987 8616 13039 13176 9091 14958 16662 3696 
1294 6295 6421 13865 8478 14522 1187 17148 14543 
147 2151 12596 6522 16051 15177 15828 11424 15077 
10551 12129 8787 2262 9073 7862 8631 4588 8624 
13924 13077 16522 5924 16878 12559 5026 5141 13293 
8704 13316 12026 14462 15707 16357 7477 15770 6365 
10416 884 4989 4812 14046 14128 11849 4358 11484 
3145 11431 6297 15321 16789 16834 14717 13465 11851 
9485 9960 3978 14596 9003 17396 8039 4671 8853 
11891 12435 3999 1963 9350 16933 10463 1101 10600 
3102 7399 2744 2784 16687 16410 1455 5955 1766 
15434 1420 12276 15824 3177 11940 11460 9759 7949 
10160 13723 9924 14490 12226 418 11672 10271 13788 
8793 16405 4661 2418 4877 2720 1756 7932 14597 
13225 16902 14954 1089 11489 15424 2891 14476 13032 
4643 12963 16095 5437 6706 481 1225 4079 1699 
17028 2310 12360 13231 518 6321 760 16611 2700 
17571 16157 13572 12880 11619 1617 17803 6700 3623 
14578 11568 15897 13337 9543 15495 9372 17408 14564 
12851 14573 4807 8377 10529 2915 2941 3463 16311 
6234 3118 13721 3350 10924 8729 7649 11784 14209 
11874 4581 12517 4583 16118 15268 8960 10931 245 
8060 9110 7481 7955 1541 4038 2914 14404 236 
2500 13787 8005 1268 14107 6498 13161 7203 9297 
2849 11346 595 4365 7145 12130 2861 4070 3155 
5358 3001 16673 4548 7856 6992 11169 12235 13291 
5372 16377 14149 1416 10370 13928 16972 867 4460 
10355 1854 8313 10592 15267 12841 15899 5881 13901 
12718 168 15000 608 9189 12454 3767 248 6530 
9933 10959 13182 5887 3620 13495 8580 15530 940 
3812 4320 17338 3352 3310 8208 5230 10263 17532 
11037 10784 16676 2711 15976 5454 1830 11847 11259 
8004 15670 10346 252 4098 904 3511 1528 5638 
4308 14393 17146 15464 1230 17389 10068 887 13574 
6724 11428 4348 8829 963 14948 17447 2738 10173 
4880 584 2099 2208 13713 15555 15470 9587 9405 
12187 11956 16465 7516 16289 1104 2091 8878 15184 
5018 15786 9616 13543 17121 7169 1898 16129 14223 
12696 3283 12452 6772 1310 16525 12780 11278 8795 
4963 2665 5845 4421 17142 4878 12862 2780 12491 
11074 7302 10778 13148 460 16444 11482 3235 9647 
9634 4384 13071 15504 15811 9210 9370 11364 17770 
6107 11758 13097 12085 17058 8312 4644 1182 905 
16526 5129 16576 10488 15084 836 1704 6150 11339 
4670 9534 416 10256 16270 2574 8934 11905 3619 
1505 10971 11233 4561 16032 10760 2602 15043 11223 
11997 7612 12373 14698 15081 3108 8023 4258 8846 
16664 16133 1740 1605 432 6065 8515 9584 12964 
4584 8440 10036 10821 1248 11319 15337 5963 6345 
3758 15181 12047 3743 553 6571 4847 357 6380 
10679 14508 15842 1229 4681 1817 10893 1833 525 
16082 1829 8006 12791 1722 12860 12605 2205 1796 
2732 3783 5537 2155 2363 1175 103 8198 10581 
14895 4955 11730 6198 16186 15352 8476 4576 10327 
2260 9806 10448 3573 11330 4412 6740 9016 17678 
8107 17078 17800 10956 1869 16460 2642 7052 11840 
16445 5177 15318 13930 40 8979 10148 10172 5909 
6239 290 690 2590 11963 15350 4007 13359 15475 
12833 16904 5985 13311 7119 7154 16040 14093 346 
840 2953 16086 9037 9894 1449 4111 11337 2419 
2681 1177 9377 1864 8500 6551 14847 2059 14816 
5701 3919 5304 3922 9123 878 3124 4525 5738 
3738 9408 10467 16021 9400 6486 5734 6831 5491 
7233 11034 1580 11952 948 10713 7710 11880 10510 
13322 5691 3594 6045 2236 13242 9737 9061 6603 
5754 12306 7899 1907 5096 12386 10212 16031 1888 
6285 3227 929 6265 17653 2232 10775 696 11510 
3500 7396 9782 2584 14908 13637 15307 4250 1311 
12308 9441 122 12980 17623 2275 7580 5782 12472 
2370 2342 1223 2862 9926 12774 17784 1034 11651 
7344 9778 14203 8875 10179 17006 5165 15738 2206 
12339 2326 540 9409 16636 16375 12682 1186 16160 
2085 15640 16462 16483 17339 13850 5901 10378 8475 
12498 5133 14029 10530 4602 11998 7608 15154 6098 
10553 2771 8120 6875 7012 14654 4513 9512 17089 
13195 11153 14095 3633 4398 14092 1387 11885 13824 
293 13611 7408 4742 4558 12989 8071 17340 4706 
14825 15046 17625 2845 6779 13693 4689 8605 11469 
7891 10825 16071 16857 8361 16283 14506 13538 3025 
10770 16276 13558 6572 6786 16559 10039 5072 13799 
454 2332 15916 4030 16507 3242 8286 2540 17035 
17688 7192 15217 2452 11003 11230 13619 11985 3332 
17234 1792 17384 4930 11710 1856 10066 2219 15278 
3427 17580 7970 17463 3159 1348 12487 4842 8339 
12638 15942 6715 3920 16503 5806 8993 16565 12715 
458 14875 8042 16161 6238 16753 15745 12120 13826 
17554 9140 13885 16891 369 12993 17504 13716 3772 
9009 1723 1318 17126 9953 3963 14652 10427 6696 
15025 17511 6381 4443 790 4140 9349 16851 5360 
17568 12343 203 13724 885 231 7764 1603 8554 
15281 4092 4829 9444 2291 1628 11756 3731 11794 
4408 15807 13840 17097 11804 10288 7920 13736 14630 
8881 17627 15209 7762 3631 16641 13664 14930 3988 
9220 16016 591 3120 13647 5009 17018 10021 355 
2502 11969 11038 8359 6870 11416 12952 11368 2746 
7510 15618 492 4743 16531 15249 15650 6274 11897 
3556 8894 15351 12382 1121 12944 5766 9970 592 
9356 1193 4029 7067 7851 7251 2548 9186 7280 
8464 1521 8228 7741 11993 9596 9457 12084 8986 
17724 6827 11810 5054 9438 10575 14574 3719 16692 
4343 3197 10426 12501 15157 10182 15516 11303 16398 
13878 12701 10181 2071 7207 1815 13714 6212 15401 
3489 7824 7968 13021 11158 4957 3921 6132 2566 
4703 16819 11001 2196 722 15763 14294 11920 6920 
98 4095 16433 12392 2183 11243 5035 11203 2504 
3064 3563 9571 1900 3210 11841 9181 1427 5765 
11162 12494 9362 1976 4386 16402 2847 12002 794 
310 139 10521 9878 7263 15805 12513 14788 7935 
7711 10215 6985 5635 16209 988 17284 6171 783 
8411 4727 15850 14159 10786 1918 1621 9657 15498 
10523 1570 10409 2187 17500 2345 5763 4941 12211 
15123 4866 16334 925 9434 3241 14791 9653 1564 
7827 2106 8604 17048 1512 6567 2816 4733 3022 
16468 8586 1663 127 13777 69 9824 16534 17718 
16821 4568 10676 6687 14849 16434 17390 3870 7527 
4869 9000 14164 12315 6808 14689 11360 1164 5175 
7845 14104 11686 14368 14487 5396 9236 16205 6141 
12408 8301 5313 1565 845 319 10694 4650 406 
15708 2281 7558 1782 10032 6741 5374 14914 14913 
7630 14923 14399 1316 2168 11561 14312 5413 13368 
5048 16103 14817 10879 10361 11943 10400 3034 1461 
12164 6945 5851 2221 5251 14529 14868 2827 8028 
8213 2040 3294 15663 14109 14079 2575 298 6083 
12940 15072 9950 3787 6361 6024 15625 10818 12657 
7887 14856 13303 4523 124 14316 1552 9109 2474 
12394 15061 15109 3215 16740 11239 4133 1909 13791 
12411 9546 5939 7146 14650 15203 11069 15874 6135 
9347 15104 12019 1999 10261 10934 16533 13489 13010 
3375 10838 13022 6479 14420 1751 2513 6448 8321 
8517 10251 11324 15390 16917 13305 15698 14643 14389 
17405 294 12633 17425 3869 17432 480 14012 2454 
17598 9090 11154 13436 4293 7619 8164 16924 17847 
219 8819 8844 12886 527 4404 16436 10200 14049 
631 15365 724 8038 11740 11290 17283 17424 1368 
14117 7216 2339 7438 7199 415 6261 548 11067 
16214 12051 11201 12998 14863 6593 2083 17174 2105 
15563 466 13488 8882 9482 10532 4115 3369 6586 