# vtk DataFile Version 5.1
Generated by LIGGGHTS
ASCII
DATASET POLYDATA
POINTS 17850 float
-0.0126507 -0.0263865 0.000347216 -0.0111187 -0.0233535 0.000443231 -0.0103633 -0.024436 0.000468118 
0.019244 -0.0219195 0.000576519 -0.0136975 -0.021762 0.000452708 0.00114105 -0.0205328 0.000383949 
-0.0104637 -0.0212278 0.000893967 -0.00274204 -0.0200343 0.000427101 0.0170437 -0.0200303 0.000371846 
0.00306128 -0.0173503 0.000473514 0.0163945 -0.0170757 0.000460746 0.0222788 -0.0166064 0.000518101 
-0.00960635 -0.0151372 0.000509496 0.0051195 -0.0140446 0.000558164 -0.010921 -0.0144027 0.000421172 
0.0232409 -0.0143051 0.000447221 -0.0101491 -0.0126605 0.00039886 0.0242129 -0.0134382 0.000578309 
0.00633791 -0.0110562 0.000432347 0.0216051 -0.0111397 0.00034437 0.0266482 -0.0111851 0.000643565 
0.0264667 -0.00960694 0.000414494 -0.00831039 -0.00836266 0.000385738 0.0253445 -0.00790066 0.000493803 
0.0271193 -0.00847959 0.000457734 0.0278969 -0.00773097 0.000396112 0.0172159 -0.00650383 0.000385234 
0.00588814 -0.00362876 0.000502061 -0.0136809 -0.00248503 0.000376941 0.00498943 -0.00215791 0.000349799 
0.0290167 -0.00278691 0.000436395 0.000662838 -0.00152609 0.000579329 -0.0264049 0.00234116 0.000481299 
-0.00594767 0.00150216 0.000600849 0.0266193 0.00417142 0.000497128 0.0281681 0.00401126 0.000485389 
-0.0195901 0.00547777 0.000539893 -0.0272512 0.00782367 0.000524605 -0.0132053 0.00791049 0.000622471 
-0.0120137 0.00714983 0.000406859 0.00143357 0.00876691 0.000406817 0.0238945 0.0102539 0.000456319 
0.00250328 0.0116383 0.000549542 -0.0102824 0.0122349 0.000353573 0.00226743 0.0128918 0.000353003 
-0.0187921 0.0146349 0.000376717 0.00377079 0.0127419 0.000436733 0.00413937 0.0154769 0.00038962 
-0.0174748 0.0156178 0.000434195 0.011661 0.0181046 0.000691497 -0.0101153 0.0184699 0.000481914 
-0.0072963 0.0188942 0.000831883 0.0169471 0.0207059 0.000443858 0.0115186 0.0225113 0.000856728 
0.00257963 0.0226015 0.000388942 0.00877757 0.0251147 0.000402164 0.0106761 0.0241561 0.000826415 
0.00348042 0.0275778 0.000625771 -0.00508286 -0.0288457 0.00255084 -0.00249823 -0.0291492 0.00234015 
-0.000796479 -0.0292158 0.00304462 0.00180466 -0.0291437 0.00288312 0.00291073 -0.0290681 0.00319653 
-0.00866034 -0.0280594 0.00297189 -0.00743179 -0.0283093 0.0016727 -0.00629578 -0.0279759 0.00236873 
-0.00265964 -0.0281348 0.00247034 -0.000924559 -0.0274102 0.00251814 0.00114095 -0.0275885 0.00218184 
0.00213596 -0.0275587 0.00283214 0.00533204 -0.0282434 0.00340758 0.0065361 -0.0283974 0.00338583 
0.00746569 -0.0279969 0.00280149 0.00903594 -0.0278879 0.00287548 -0.0113377 -0.0271648 0.000683573 
-0.00900001 -0.0276752 0.00181022 -0.00764512 -0.0270735 0.00137356 -0.0036582 -0.0276091 0.00242122 
-0.00021655 -0.0268623 0.00336635 0.00414741 -0.0273501 0.00328237 0.00695198 -0.0268457 0.00271344 
0.0097501 -0.0266192 0.00233078 0.0106052 -0.0269891 0.00313854 -0.0123933 -0.0267007 0.00130968 
-0.0103543 -0.0266388 0.00106775 -0.00811858 -0.0268187 0.00249604 -0.00652431 -0.0268638 0.00203244 
-0.00524644 -0.0264326 0.0020815 -0.00372426 -0.0264742 0.00283619 -0.00224244 -0.0267797 0.00187326 
-0.000641029 -0.0262533 0.00235529 0.000851882 -0.0264459 0.00282852 0.00217762 -0.026169 0.00233187 
0.00564752 -0.0270519 0.00308793 0.00850794 -0.0267286 0.00189983 0.0118377 -0.0267243 0.00311561 
-0.0143296 -0.0256263 0.00153207 -0.0114384 -0.0259937 0.000687914 -0.00910173 -0.0262652 0.00247599 
-0.0063446 -0.025672 0.00181497 -0.00274304 -0.025447 0.00174254 0.00364071 -0.026064 0.00284451 
0.00593242 -0.0256125 0.00324196 0.00901555 -0.0255846 0.00277747 -0.0104299 -0.0254907 0.00130014 
-0.00784367 -0.0251286 0.00181927 -0.00487219 -0.0249527 0.00192977 -0.00277419 -0.0245246 0.0022551 
-0.00106768 -0.0247738 0.00190857 0.000746387 -0.0247995 0.00139846 0.00196987 -0.0250613 0.00213754 
0.00331855 -0.0247675 0.00282452 0.00501122 -0.0247378 0.00298199 0.00675814 -0.0248094 0.00350412 
0.00787399 -0.0254025 0.00277879 0.0137554 -0.0247387 0.00220366 0.015009 -0.0252763 0.00211586 
-0.0142085 -0.0242761 0.000405971 -0.014497 -0.0244426 0.00152126 -0.0130978 -0.0255091 0.000721692 
-0.0114341 -0.0246882 0.0011962 -0.00735866 -0.0239766 0.002084 -0.00621744 -0.024077 0.00186165 
-0.00438899 -0.0238974 0.0020946 -0.00210738 -0.0237104 0.00200753 0.000618893 -0.0235558 0.00146515 
0.00275975 -0.0237347 0.00271657 0.00747131 -0.0239333 0.00321712 0.00849598 -0.0244015 0.00321933 
0.0104118 -0.0240052 0.00268994 0.0117476 -0.0242664 0.00265215 0.0127629 -0.0246398 0.00288648 
0.0149569 -0.0240778 0.00191756 0.0161632 -0.0242082 0.00180773 -0.0171159 -0.0238992 0.00163909 
-0.0124578 -0.0243535 0.000634442 -0.00912032 -0.0243161 0.000719494 -0.00783497 -0.0234526 0.0012798 
-0.00392354 -0.0228276 0.00206649 -0.00325005 -0.0236798 0.0015532 -3.02517e-05 -0.022538 0.000755073 
0.00155093 -0.0232805 0.000834588 0.0127362 -0.0237522 0.00194909 0.0138931 -0.0235243 0.00158035 
0.0181775 -0.0225698 0.00107387 -0.0154982 -0.0242594 0.000744715 -0.0143219 -0.023214 0.000551898 
-0.0133505 -0.0236091 0.000412097 -0.0073546 -0.022271 0.00038286 -0.00643391 -0.0226636 0.00128467 
-0.0052351 -0.0228365 0.00113428 -0.00264127 -0.0226809 0.00208786 -0.00163441 -0.0226513 0.00143536 
-0.000321176 -0.0216855 0.00171116 0.000759502 -0.0215999 0.000816314 0.00359845 -0.0230185 0.00245825 
0.00634241 -0.0227461 0.00273775 0.00779867 -0.0228422 0.00288785 0.00876755 -0.0221372 0.00169518 
0.0105142 -0.0226727 0.00281434 0.0115858 -0.0232519 0.00234384 -0.0185842 -0.0224706 0.00170383 
-0.0173052 -0.0220817 0.00166929 -0.0157774 -0.0228805 0.000457594 -0.0134643 -0.0226005 0.00118608 
-0.0124126 -0.0229934 0.00117854 -0.00852231 -0.0223935 0.00102295 -0.00611745 -0.0208834 0.00098407 
-0.00418511 -0.0215828 0.000931402 -0.00179522 -0.0208884 0.000380527 0.00186605 -0.0211863 0.00097958 
0.00303698 -0.02227 0.00170887 0.00403701 -0.0214638 0.00185555 0.00709236 -0.0217958 0.00270709 
0.0104557 -0.0216004 0.00241676 0.0144786 -0.0220486 0.00129552 0.0163784 -0.0221456 0.000451525 
-0.0194699 -0.0218282 0.00205587 -0.0118274 -0.0216281 0.00145102 -0.0115162 -0.0222931 0.000605565 
-0.00928755 -0.0215069 0.000808017 -0.0082578 -0.0208128 0.00037445 -0.00798345 -0.0206812 0.001413 
-0.00368422 -0.0200397 0.00105264 -0.00282707 -0.0211914 0.00130004 -0.000994287 -0.0200496 0.00103893 
0.000184341 -0.0201662 0.000941027 0.00322483 -0.0211987 0.00108753 0.00576479 -0.021629 0.0019607 
0.00810866 -0.0212096 0.00252947 0.0118477 -0.0207129 0.00184531 0.0151787 -0.0213073 0.000796235 
-0.0202806 -0.0208114 0.00175695 -0.0186121 -0.02099 0.00245208 -0.0169074 -0.0208791 0.00232058 
-0.0157456 -0.021782 0.00210562 -0.0128541 -0.0213902 0.000983576 -0.00723103 -0.0199354 0.000556581 
-0.00522125 -0.0211962 0.000449852 0.00225528 -0.0200653 0.000697641 0.00284367 -0.0201294 0.00171825 
0.00421701 -0.0202884 0.00169864 0.00742212 -0.0202592 0.00208038 0.00978644 -0.0203415 0.00284515 
0.0132935 -0.0209611 0.00127927 0.0141694 -0.0201571 0.00062176 0.0195145 -0.0207272 0.00168723 
-0.021267 -0.0201029 0.00208575 -0.0158972 -0.0205002 0.00208686 -0.014821 -0.0203912 0.00229945 
-0.012764 -0.0202901 0.000453774 -0.00856991 -0.0196361 0.000665284 0.00120665 -0.0194141 0.000993778 
0.00599695 -0.0195581 0.00210075 0.00841947 -0.0192207 0.00186027 0.0120303 -0.0195064 0.00145068 
0.0131379 -0.0191144 0.00156524 0.0154466 -0.0202645 0.000384865 0.0215193 -0.0195619 0.00220693 
-0.0204854 -0.0195547 0.00271521 -0.0193532 -0.0198327 0.00277204 -0.0170883 -0.0192998 0.00288829 
-0.013445 -0.019655 0.00190509 -0.0114899 -0.0197795 0.000654969 -0.00972766 -0.0197132 0.000545023 
-0.00300051 -0.0189894 0.000357464 -0.0010884 -0.0190039 0.00163337 0.00183192 -0.0184857 0.000403067 
0.00304172 -0.01899 0.00132046 0.00433311 -0.0190732 0.00170622 0.0058396 -0.0188038 0.00123758 
0.0103969 -0.0193257 0.00216016 0.0121314 -0.0182983 0.00158962 0.0143199 -0.0191266 0.000862945 
0.0156997 -0.0193128 0.00104475 0.0165999 -0.0190221 0.000410828 0.0219142 -0.0194812 0.000624755 
-0.0215105 -0.0189837 0.00255874 -0.0178993 -0.0184384 0.00276575 -0.0161806 -0.0186099 0.00285465 
-0.0125658 -0.0189637 0.00136519 -0.00968029 -0.0185112 0.000462328 -0.00783564 -0.0187298 0.000991925 
0.000331348 -0.018406 0.000544862 0.0012107 -0.018283 0.00137832 0.00808784 -0.0175818 0.00124375 
0.0111222 -0.0179106 0.00187567 0.0159148 -0.018243 0.00129391 0.0181293 -0.0193222 0.00054713 
0.018575 -0.0181968 0.00128178 -0.0230293 -0.0179994 0.00263189 -0.0207324 -0.0174873 0.00321194 
-0.0196192 -0.0166691 0.00268077 -0.0138526 -0.0184428 0.00183091 -0.0116593 -0.018397 0.00159202 
-0.0041085 -0.0176875 0.00132272 -0.000139776 -0.017507 0.00103742 0.00159653 -0.0172721 0.000711746 
0.00477564 -0.0175007 0.00109535 0.0060554 -0.01758 0.00101741 0.00729391 -0.017493 0.00226348 
0.0135836 -0.0178023 0.000521943 0.0178152 -0.0176219 0.000580337 0.0198519 -0.0174322 0.000476987 
0.0220901 -0.01846 0.00163119 -0.0172954 -0.0175522 0.00339637 -0.0149391 -0.0171151 0.00235743 
-0.0126663 -0.0177293 0.00177835 -0.0114713 -0.0171678 0.000889285 -0.00962876 -0.0177206 0.00124905 
0.00420091 -0.016066 0.00126198 0.00553721 -0.0163916 0.000979402 0.00782877 -0.0165319 0.00266429 
0.0109733 -0.0167501 0.00182955 0.0121633 -0.0164986 0.00173737 0.0128673 -0.0174307 0.00175149 
0.0231993 -0.0174468 0.00156598 -0.02421 -0.0165849 0.00281227 -0.0227035 -0.0159825 0.00287297 
-0.0181303 -0.0164575 0.00269878 -0.0169433 -0.0161125 0.00280218 -0.013463 -0.0166746 0.00228738 
-0.0103429 -0.0163286 0.00151347 -0.00463649 -0.0165642 0.00142742 0.00078127 -0.0169477 0.00146438 
0.00208424 -0.0158936 0.00109148 0.00716326 -0.0162929 0.00174493 0.00984339 -0.0159867 0.000906246 
0.0136612 -0.016426 0.00167591 0.0189932 -0.0166981 0.000987117 0.0226843 -0.0179139 0.000568995 
-0.0253498 -0.014836 0.00252587 -0.0242124 -0.0148571 0.00284418 -0.0233013 -0.0146344 0.00213829 
[...]
POINT_DATA 17850
FIELD FieldData 6
id 1 17850 int
12461 16760 6804 5826 5235 15679 9975 2386 4659 
6138 3561 5891 12688 17635 7866 1478 8105 16396 
12545 16594 17701 13312 11673 12056 5470 16639 15160 
10467 11896 17084 11216 5945 12269 17194 11670 6459 
10725 16614 5473 6812 5174 16455 16905 15784 6793 
17150 12748 11471 7576 5779 494 11248 12294 14260 
5710 16710 5684 4289 10032 5202 11570 5407 2615 
2690 7353 15891 991 6595 11907 10694 16125 3428 
11716 1103 12147 12559 15928 13409 16434 12217 3982 
4484 2009 11822 8615 17370 1751 1690 11584 8439 
9490 8586 10991 7433 6497 7715 6018 3099 13459 
10428 11360 2314 9056 10856 1321 1782 6614 962 
12408 5583 1447 459 3875 14363 14846 473 5079 
10511 9236 11825 13077 10744 13176 7743 3058 11698 
10582 8371 16644 3579 10446 9923 4793 14943 5170 
15386 1890 16546 3104 6288 15796 17080 623 2651 
558 3048 11249 6027 3309 3369 15711 1606 5519 
10676 7342 9556 2397 2269 11201 15610 11634 13895 
3551 1877 6640 13324 15365 11516 13275 15898 15134 
8349 11686 15033 15022 8892 16731 13867 10435 4993 
6886 5492 15881 5499 4672 8363 1728 10097 14487 
15359 15858 8600 1355 14357 146 11127 11440 2328 
10200 7853 7630 7034 13079 14432 1913 6566 12264 
10614 12622 14134 9876 14957 12676 12001 17376 14940 
15500 9040 11316 10788 15008 3137 9076 10670 1413 
17492 12832 9791 13777 13302 5768 14399 17462 6255 
12706 195 13846 10138 12846 2946 16266 5216 4690 
515 8280 11188 14658 2712 15484 1122 16893 16234 
15824 3597 16979 2924 9987 15011 13842 7978 8561 
16560 14987 14032 3876 162 14461 14789 8194 2202 
15391 16422 3074 7533 10169 14071 6343 4327 17045 
8580 14550 10319 2327 17352 10567 10501 9649 12061 
14020 7893 9273 8969 12945 6587 4767 7904 16871 
1277 15602 11324 5341 2598 2775 7477 8378 9323 
3786 2445 5437 5161 8191 2836 4491 15247 14625 
10834 14849 9637 8011 749 3458 10767 8102 10572 
10079 17323 15007 13180 17379 6217 16342 16279 5756 
9999 11411 8134 6928 14811 9661 13769 2861 5961 
14596 14113 13891 2049 10423 4671 7975 10867 15077 
16328 11218 5564 13463 11529 12770 9467 6261 481 
4965 6530 7087 7765 174 6769 4035 16009 6264 
11208 16933 15358 12771 16729 7429 3467 8876 2787 
2914 4038 1129 5238 10673 10990 8061 12502 12073 
12709 14150 13871 16629 13326 3463 14278 5186 10418 
6144 15718 3397 6044 14971 12580 5847 10456 11423 
226 17104 3718 14794 13923 12179 15246 1868 13377 
3643 1025 10610 15438 9045 8797 4792 777 8715 
2490 8282 873 15192 2475 13207 2383 14072 4146 
15325 5695 14224 17226 10507 8004 6012 13566 6424 
7363 106 12009 5946 6357 5522 6409 2524 16367 
4226 12942 5578 1504 12476 7268 12242 2171 17683 
6310 4973 14976 8064 14457 4748 6320 6966 14556 
16649 8717 10463 15972 13335 11147 6869 17640 16278 
17686 1898 1617 13755 13863 15198 16409 8232 9446 
3226 15643 11589 15465 17182 15961 8381 11726 8701 
6511 1528 15818 4185 10604 3683 17606 5845 14848 
8546 10151 5645 13958 11011 2762 3940 3619 7301 
15334 9002 6052 8515 12377 385 6675 8226 11652 
5864 17555 11861 8878 11185 4818 5749 2215 4556 
10263 14708 6915 2568 8728 10103 4596 12244 15915 
17027 12802 11336 9626 5754 7797 10760 4972 12285 
13504 10468 12743 14149 12040 15433 9370 14664 10401 
12857 8783 16086 7936 890 2424 6065 14453 10965 
17359 13713 789 10500 14548 15555 4715 1244 17105 
3717 2275 11707 3276 2855 10093 10412 10158 13773 
17484 637 12097 10448 12047 1948 10752 12270 2862 
5453 8740 11742 6775 16752 9836 5421 6685 8567 
589 3778 4416 17221 17816 675 1449 723 6162 
1081 4582 10745 15766 10706 3700 2465 17723 1106 
12791 13889 15197 1719 16741 12525 14008 1853 1042 
6469 15864 12043 15636 1331 13 1393 14906 14508 
6420 9731 3827 11838 10966 7934 12667 1982 16962 
11819 1071 15164 17170 11729 16815 260 4407 15842 
16168 11738 7487 603 2260 10652 16462 7580 15322 
10527 3776 12365 7221 11639 948 4086 8023 17662 
12885 9139 6831 4680 2922 1074 7761 11548 12152 
16465 15728 12548 1036 11346 8006 11439 17593 15769 
15111 979 3565 15677 276 7716 6582 11117 5497 
11797 10662 4195 14963 10486 14186 10066 10419 17434 
2376 2303 16327 11811 9796 17449 1404 9348 10976 
17331 611 10754 10609 952 2498 11629 15173 16441 
14087 14937 6057 3128 10846 9366 9052 13347 17621 
1789 809 3633 8826 11161 13004 6238 17601 10243 
17568 16350 4888 2955 100 16005 13911 2188 16762 
17522 13272 1097 13322 7154 14244 12922 4254 15299 
11419 5977 6016 13373 7740 11436 13317 17727 17570 
1869 9704 17444 8431 8527 12196 6118 114 3260 
17742 15436 12953 7677 7697 14879 14299 4842 3790 
13130 13651 4162 17704 15147 12741 3938 6274 341 
1620 16724 10395 3356 8785 15781 11430 13509 8633 
10712 16494 16920 13605 7601 17807 9557 3652 4396 
9590 11244 16148 3066 5195 13310 1775 14014 1856 
11492 13038 16548 4762 6004 10002 13185 16863 16247 
13479 11802 13220 15614 12251 17827 6091 9647 8542 
5283 15453 7440 4140 15392 16160 412 5066 17801 
5831 7178 14731 482 11453 14518 7741 7793 2013 
2268 10297 3078 7205 13761 7926 4829 8622 13073 
16020 3888 17418 4150 13290 14148 9500 17199 11668 
7654 11088 17691 3679 3383 13525 17477 4906 15801 
12746 4478 598 14470 13506 5252 1421 10460 11293 
16147 12423 15431 14691 6564 4984 11443 16987 14888 
8804 12966 1652 11680 9325 17410 5596 10537 13163 
7770 5865 10776 10508 1476 16891 10219 13609 4138 
7833 16115 268 4134 1029 17454 7327 8968 814 
17620 15368 7902 12084 14961 781 7720 17300 12069 
17254 15618 2947 6902 6791 1825 14521 2294 5122 
4796 13850 3607 2291 10627 12021 17099 11551 11714 
10928 2389 17644 15214 17336 8182 3977 16854 11850 
13232 17034 11837 10312 7526 16113 5035 14371 12540 
15121 15361 5999 11713 15678 8636 12038 15127 4634 
4014 9588 15651 10657 11780 2927 2609 15999 12813 
15746 15327 6938 10143 4132 12901 13052 2361 11109 
7123 6152 2469 10590 6855 726 9241 1629 11644 
12782 15831 7750 14105 2937 4506 10189 11203 5384 
9591 7290 14533 10421 12929 16476 3916 6752 5512 
2135 2763 17605 16099 8623 4983 11180 8022 801 
2438 9955 398 1827 10680 4574 1609 3459 15814 
11155 11938 6956 10521 13987 3275 1550 16335 9319 
10585 15006 15753 15045 1846 616 5416 8323 8650 
4486 14887 16806 13296 7707 2491 5614 8745 3176 
2983 14904 11322 3675 12081 8163 5004 2067 5020 
3218 14452 10196 16501 14137 10274 12492 8823 9915 
2727 4719 12330 2117 10804 7006 3784 3585 7499 
119 4567 2559 13460 223 32 13025 5054 3274 
4616 5264 10900 15157 5427 17436 5878 7687 3808 
15850 3670 5755 16550 2989 13492 5369 3689 9798 
14520 10181 2814 14421 15787 9601 9540 2932 2304 
6414 2629 4156 2697 12092 6713 9057 4741 14677 
13045 6738 745 10710 8768 3530 2076 6631 3036 
16038 4837 6067 16136 9159 1788 7325 13002 5189 
17795 9042 10544 7611 1312 1417 17659 1716 15328 
17782 6954 2131 12458 1942 500 14582 3757 5986 
2113 12765 1265 2623 5340 12208 4144 1056 1333 
1623 6466 706 8584 8921 3363 10840 7428 8141 
17553 7198 16309 16468 8536 10226 7316 6272 15348 
7103 12542 7843 5332 15901 1840 7991 3733 10267 
110 8028 7014 13965 10376 12481 9725 3047 1057 
524 6241 15193 15836 4809 11006 15301 11789 13978 
733 16103 12256 3662 9146 16957 7189 16087 15039 
457 1648 16534 6719 14345 13340 13108 12736 7708 
625 7629 8973 4438 7004 10568 7668 15049 13139 
15221 11685 15018 824 17654 6106 17275 1938 12326 
6521 2153 9354 2000 16856 6215 14982 13896 6687 
4697 12974 5333 15390 15749 4630 17154 17317 5236 
13022 10714 4904 123 6130 5364 13112 14737 4862 
411 6912 9820 6747 1970 3544 15778 1677 16571 
17366 12558 14898 11556 7582 16923 16580 7146 14868 
15661 1731 10888 78 14565 7945 4781 9957 9108 
17398 14100 16223 656 16295 3692 10251 10358 5954 
9352 2537 16740 10488 17178 17250 14057 11592 9800 
6519 16294 3027 13470 7987 5379 10061 5168 11476 
16801 11130 1457 4208 4079 16556 166 11067 11371 
6416 11812 10651 5824 10951 1044 11084 14433 1408 
13997 9187 17565 6386 12280 5936 12800 1190 11574 
1461 8689 13416 4381 539 13488 13994 2811 12556 
8809 6998 2048 14683 1069 8816 14156 14566 15112 
14232 14673 9767 1651 17137 17248 15625 15953 14704 
16370 1738 9013 16381 16940 9777 111 2891 1891 
16193 11014 14560 10028 5026 17614 3811 14427 7197 
10416 10877 9091 6323 7836 3416 16379 5272 2007 
3308 17156 13844 1222 14933 6927 10018 14990 16573 
11853 1076 12528 7733 4666 1043 6843 11695 5301 
12204 1276 10998 3973 9103 6877 14471 8404 3813 
8982 17148 6971 11600 12130 7589 5725 426 5181 
4109 6555 2446 17579 16104 7427 317 12902 17794 
15770 2063 14799 5676 13893 17013 14346 13171 10355 
15782 16232 9151 14163 13473 14852 15669 10452 14016 
16035 6094 630 5851 11116 15092 1197 8248 16457 
5187 11238 8971 9771 16676 13087 7788 17031 8222 
2087 14436 4878 10737 16664 1480 10 2155 9963 
5278 14920 4548 614 6011 17053 17224 836 17152 
9921 6789 16438 3810 13419 10805 11669 9485 15980 
12833 11725 16996 9737 7880 6700 8891 13118 16513 
15590 1870 17131 14351 12918 891 497 2077 16255 
14615 5540 5542 13182 1766 16096 16226 10095 3313 
17313 5574 6163 435 17206 7534 15760 16484 2259 
9642 3514 14079 7133 1138 17211 7112 10265 12338 
4936 7028 16599 12190 17603 16765 9801 8658 11988 
15929 10773 6267 8199 14838 4077 5615 15466 5700 
8859 926 8855 14954 143 14022 14397 1240 339 
4777 16118 9700 16346 13418 16496 12642 6070 16293 
12165 16211 8850 9756 856 7090 12594 2757 8795 
2382 7872 537 10574 9703 7402 14120 16485 12625 
10370 5222 6728 11518 5303 8195 10911 3353 5239 
8333 753 11186 1459 12946 7011 1203 17811 8511 
2337 3423 9125 12042 14926 17077 10837 5320 5932 
5964 12282 7995 10723 17401 4648 8503 11936 10798 
3278 4857 3525 11233 17665 5440 15719 4939 13168 
15992 5556 11045 11264 10876 7003 14203 6571 12239 
10487 15475 16196 1169 4456 17047 2984 16495 15592 
5950 6807 16199 15565 14051 1471 17440 16726 5441 
10483 1888 11732 12860 17582 6714 17770 14523 14507 
8215 13148 9379 13398 12222 5474 1414 10648 16449 
13166 10256 14624 16481 10244 9063 3511 345 17438 
7820 7456 4309 17094 277 15793 9074 8184 5589 
9233 9895 16011 9142 13267 7036 7173 10331 6832 
2728 7096 5584 12453 9521 15722 9133 9281 4122 
5256 8492 6740 9338 11000 6506 3342 9619 9799 
4006 11094 15377 17619 16826 3431 4266 4018 5963 
6480 122 13653 5804 17705 2963 3231 13616 15038 
11390 4642 9576 14034 16828 6961 5137 1110 15637 
2987 14060 840 4287 16753 4986 14809 14473 342 
7570 8938 6723 2230 7624 5967 1795 14162 13890 
7347 9037 11618 3380 13209 13359 5537 7129 12795 
6446 7492 11056 12477 6232 9976 4959 17246 10985 
582 12711 2819 15013 1494 14092 16776 9305 2452 
10703 5548 10073 9313 3538 228 2695 11960 13420 
16529 1239 13502 9080 14418 6932 910 8450 3918 
8085 11325 7326 8153 14949 344 11024 6345 16581 
16818 17102 8913 11160 2985 16832 11192 5951 17382 
7525 11367 15318 4281 3378 17437 7344 7573 11913 
5391 141 17609 9726 2477 11876 9879 531 13681 
11884 9584 15755 5485 8070 663 5223 13545 12635 
5259 14983 7758 16040 13696 8281 17223 6317 9594 
12840 17733 13929 4111 2453 17511 16816 274 5270 
9201 17617 11776 10543 2051 3466 4770 8217 3402 
16251 8918 9259 9669 7217 6670 2561 1115 73 
11664 4131 11999 11163 12569 9493 14962 16101 14083 
8317 10775 519 7631 9577 9831 10890 2800 10638 
17023 13274 15513 16276 2758 15042 13331 14279 16403 
7713 10060 13003 12666 6093 2220 15410 11607 11731 
1135 1521 5114 16751 1848 9204 8856 4041 12993 
16841 6605 11513 7642 16998 7800 4097 13553 2375 
11447 7041 5514 7762 4307 875 7390 8113 4840 
8800 13664 4537 9177 2971 17189 13405 9400 12664 
13737 7814 14977 17076 2601 6973 12534 12849 16138 
4010 1560 16820 11643 2325 5759 8087 15335 4128 
8866 12102 17489 6660 1977 9866 16579 1536 225 
8278 14093 7821 13452 6870 8955 9020 15217 15237 
1037 10384 17689 12291 2353 9918 1145 2792 8993 
3557 296 15947 509 11577 10770 15648 17758 9996 
10937 15991 6960 15266 15647 3923 15025 5536 5535 
10208 15017 13690 16630 1715 5926 17033 9509 14892 
17687 16989 12161 2158 6360 4994 6121 1644 16811 
13342 12314 11691 17797 16197 10495 4030 8322 17087 
11514 14653 7355 11710 1867 14474 16261 5918 11412 
1474 859 11461 3766 15219 3225 13691 10799 5334 
14361 4531 11103 17672 8424 10215 11023 8806 13401 
13215 9206 4321 11307 7219 369 16549 8269 12546 
1857 2904 1453 8338 15366 12890 17585 11895 5012 
649 16967 9562 1568 806 16499 17324 14688 729 
17506 9143 14195 5906 12756 7626 15566 16936 12701 
1108 12379 14 14353 17485 6394 8089 203 6468 
3017 16652 2066 6253 4908 9268 650 16692 10094 
6454 1422 14727 17068 14062 12864 11886 15905 12956 
1919 8601 4827 14792 3184 13669 3506 17453 1154 
436 12948 8359 4561 10373 10299 465 13831 3845 
14638 11739 8050 12730 16983 13969 1684 15387 10065 
3210 12375 7782 6654 6940 5130 13740 17681 5245 
12775 3282 15954 13608 4100 10716 7020 636 5501 
14170 568 157 9622 4784 16766 14256 847 7067 
10552 3220 8926 14742 2801 8 238 17443 12712 
5654 3267 2816 6500 400 1210 4143 17642 14621 
528 15341 3928 4349 8041 7135 1902 1595 337 
14428 11650 14350 3188 5135 11383 17362 2331 10554 
14599 7073 7897 9127 12325 6254 387 6493 10836 
17305 17549 6903 12263 14401 4832 1754 348 7509 
3654 8838 2860 5456 4203 1096 13101 17713 3132 
1585 6516 16227 3016 5169 6673 14179 909 3850 
1906 10333 4457 13982 12380 6624 7391 3879 5217 
14640 14700 7760 7695 15776 5719 8299 16284 8604 
70 4797 11843 5720 4236 799 9434 6618 4452 
3404 14857 9967 9165 13390 5207 17181 6262 10868 
908 8233 17460 4064 517 6760 3843 8239 4151 
8356 666 4910 5500 10417 11747 1590 409 12731 
1999 12250 211 2015 8544 9840 6442 43 4507 
4048 9982 16205 4650 7421 11043 4786 59 1673 
8556 6406 1543 5622 5805 3222 10894 3886 12716 
1800 1721 11562 1109 8708 5539 1498 7459 4591 
12004 14403 1093 10050 1137 9912 15109 8943 13294 
8725 13580 10790 12332 5031 4853 975 5209 10548 
11256 4273 1092 12814 9931 10658 7013 5462 2483 
6945 7980 5751 14637 96 4489 14281 14420 2098 
8300 5842 2214 14686 12807 15878 13924 7915 4893 
10891 6735 3501 12005 16439 1804 17478 17318 943 
10692 2374 2939 9824 480 8026 13455 13887 3646 
12518 6269 16240 5377 1022 5274 14717 10308 11069 
11893 3105 2200 8495 14153 291 15136 9443 1663 
15732 10400 16198 3215 10154 15502 14746 12068 17177 
12595 9658 8585 7216 10807 3457 13516 13293 8447 
1546 6382 4633 17244 15919 12940 672 1356 12843 
4752 10718 9090 378 13539 14119 13507 3344 11340 
15206 9887 10445 11297 20 8688 13161 1140 7181 
17060 6460 13262 1224 16662 4559 13734 6522 13599 
8164 7876 16917 8996 9720 12035 12851 5464 3884 
15395 9652 17240 13792 8206 13661 4780 605 2005 
8521 1470 2057 2789 11068 8497 12164 18 6967 
8882 1828 14745 16114 8796 2549 10498 5604 6102 
14525 5053 14255 8518 11593 8551 13487 10389 6224 
12963 12799 163 5039 17626 16267 16368 13788 9851 
14760 14836 2169 11025 15584 6589 16347 10697 2936 
5276 12245 7256 1294 3143 2221 2657 15311 2707 
8488 16056 7180 9110 12378 12234 1409 15576 15927 
16159 11619 11561 13667 2648 17405 5552 17210 124 
12411 7255 2760 7463 16025 8060 12447 7858 7272 
4184 12491 3194 12919 3714 11078 16042 8664 15424 
5875 5783 1392 16525 17850 359 11415 16442 9882 
11329 11972 12023 5055 5275 14928 12110 12107 1500 
5383 6278 597 990 12915 16044 11429 12454 11851 
942 13640 4604 14464 1939 14055 5463 12048 16263 
15713 10621 7856 9331 10030 13039 14730 2224 16057 
4538 4190 10173 10916 4725 1082 15432 6006 17121 
7555 2742 4362 5037 13143 15183 9543 2713 14503 
6256 2950 10414 14193 5856 10795 971 9578 418 
16400 14419 15748 9815 11816 2253 14088 3904 9724 
8445 3485 11065 3955 9665 595 165 15343 13156 
7403 10583 4795 3767 4133 3706 6836 14839 14783 
2664 3452 2176 11879 7332 9603 12455 6396 5833 
1990 13076 7124 16243 8221 1401 3219 11945 9761 
2024 13350 14564 14662 13252 13467 12904 5925 11975 
11364 10090 3783 1428 14340 2310 3304 5139 5504 
1308 15250 13503 13802 14762 12753 13852 11951 621 
15083 6080 9526 17338 755 5415 10353 12747 9749 
17608 8928 16357 2037 10919 13291 4629 3065 12821 
11603 11242 12543 9034 8846 4454 3118 1854 9149 
1326 3620 11456 8755 3919 7958 14366 6329 7984 
8657 421 6020 1281 4665 2280 16188 6770 11631 
3415 416 4661 9182 6840 4421 13988 8829 8959 
11594 3352 16955 17817 6536 12109 6279 3446 234 
6271 721 6941 16311 11568 6063 16043 9038 1539 
3885 14764 5646 16013 887 8651 13498 4098 12817 
10441 1711 8454 6837 10771 16707 6990 5176 12497 
5544 8805 11947 3006 2059 1778 11957 1213 6773 
6797 6541 16974 5988 7480 13753 2612 17507 14460 
3488 11906 3108 553 1563 14214 3460 16265 3640 
7376 7553 11074 1047 6630 4856 16129 10140 5378 
4212 2461 13219 8502 4449 6539 647 1472 963 
7938 646 5983 3236 17515 8401 12188 7476 1779 
16146 1218 17625 12777 14778 13626 9778 12371 3704 
5526 1133 13683 17734 11268 5702 3298 17632 2255 
13049 4542 11549 9806 8436 4493 12450 15572 13441 
10681 9717 3146 11406 133 15326 6698 12104 16840 
5352 15848 15544 3277 17487 5727 3828 10553 6979 
5713 12006 7650 10311 4040 8843 3647 10514 1786 
9300 12434 15449 7345 12420 3361 10096 3462 11482 
4849 16559 9225 11294 14479 353 2732 16460 2719 
15773 9838 1023 16748 13728 6609 10746 16813 4186 
340 3079 641 7832 17015 2870 4864 16352 8674 
12334 6531 5131 11478 7211 14952 1583 3726 14249 
10104 5038 17591 2381 6153 4279 11795 2419 11865 
10830 3889 2974 13046 2160 13411 17752 13837 5145 
16723 1722 16213 12935 15843 7691 2266 12275 13766 
17095 1377 16757 1208 17230 7585 16464 2521 9369 
169 13095 8205 16202 3878 10341 16063 3558 9859 
7313 4742 7939 6167 11531 6824 12496 15826 6260 
1250 1123 4051 2329 8935 4791 11183 4475 17787 
15248 9592 15275 5655 15403 5321 7680 10348 11840 
14709 9486 12016 10371 1379 13654 14969 10519 3765 
12898 3846 16716 16845 1773 17473 1515 1426 14165 
5119 3354 7323 7849 16773 14021 12855 11426 11932 
13538 12659 2898 7952 17093 16374 8177 13397 11762 
17172 15819 11142 10440 8015 7486 14864 15487 4049 
17784 3055 12473 9145 8760 7686 14499 11754 15976 
929 5886 14239 4482 7669 1112 1794 16675 11288 
2772 16660 13592 16119 9985 17340 7847 9920 4751 
9762 4657 7232 16183 6353 17140 2433 5438 13644 
15155 15055 9022 16308 7105 17262 17319 5420 7693 
413 13964 9203 17613 12519 198 9675 14517 14699 
6285 2646 16516 2540 2085 7506 15149 4572 3685 
7577 1637 2756 4607 16074 3550 2014 125 16478 
336 4216 10510 10037 3611 4799 17480 8120 5430 
7260 9784 6798 13144 15641 4418 11086 12538 14781 
9505 14555 4393 17287 13549 14558 13693 4250 4003 
14154 4290 6644 14369 4975 11868 17680 14376 17050 
10983 12634 15822 576 16479 6699 9916 3077 6243 
520 1387 5974 15232 12626 619 579 9714 11458 
12060 17339 2254 8905 4619 7613 334 4819 4443 
7584 30 14225 14480 3650 5188 6731 13484 10082 
8543 17097 11985 8397 4585 14095 16358 1559 8610 
7785 2146 14858 3373 4953 4755 1362 11894 16029 
16784 11165 15581 15742 5721 7361 10112 8669 12225 
1826 7413 12603 17213 7636 12316 8002 9844 15545 
15146 8067 2821 15014 1199 8680 4360 2964 221 
7871 16423 9828 5600 13688 17830 13023 11251 14773 
12805 11209 2557 12933 16743 1608 1155 14438 12221 
11939 7531 12884 2593 14089 11140 314 10360 4415 
11757 17273 9050 9004 16725 13016 14395 1875 9535 
8897 14609 4176 10427 11826 14652 13300 6051 3156 
10278 10907 2643 17495 15983 10643 16206 16353 10758 
16315 6763 12307 15914 13379 1622 8347 2115 5953 
12778 4328 2644 16128 6729 9416 3234 1930 9596 
12607 17101 3703 9715 1100 6636 365 3520 16624 
15779 8863 14874 4264 4918 15067 15374 3371 9255 
8734 3549 3912 5828 15276 17439 16401 13520 14205 
5989 10476 10350 9818 2369 11832 6099 4928 4214 
1275 9602 13153 4954 7930 7237 14038 7043 6504 
16141 12812 681 11624 13183 4050 1632 551 6513 
5802 5613 12783 9234 12232 17572 8076 9772 14617 
16865 9172 9096 4647 14765 6354 15382 6823 15837 
9609 180 4789 8712 5777 722 8468 4814 13413 
5592 9362 196 13404 6918 363 12803 10964 1286 
6347 3126 2036 882 6835 2586 16107 12134 15921 
10166 6037 1166 14151 16012 13562 11990 1113 827 
10145 795 13621 7479 9936 6748 10935 3059 6642 
6558 17594 6679 14750 13638 12100 7030 10472 7647 
7064 13145 11785 9264 7483 2277 10252 5956 15723 
213 12024 5277 13722 471 8056 14587 13378 8350 
11347 949 715 7329 1610 1252 1952 730 10206 
11073 14770 2468 5818 7412 9243 12641 7550 4400 
5921 3376 3064 2081 15498 9298 352 5190 4876 
12247 10292 2913 17048 3141 1564 7529 13012 6717 