# vtk DataFile Version 5.1
Generated by LIGGGHTS
ASCII
DATASET POLYDATA
POINTS 17850 float
-0.0118927 -0.0269733 0.000574056 -0.0104537 -0.0256746 0.00057978 -0.00158627 -0.0267175 0.000560658 
0.0108619 -0.0273204 0.000605748 -0.0118604 -0.0246411 0.000838917 -0.0107515 -0.0245262 0.000605644 
0.00133402 -0.0252197 0.000613948 0.00310484 -0.0240515 0.000581782 0.0178052 -0.0232608 0.000625684 
0.00561353 -0.0236372 0.000645176 -0.0109574 -0.0218306 0.000577703 0.00167619 -0.0219635 0.000617802 
0.00327675 -0.0222347 0.000657019 0.00274095 -0.0212144 0.000642658 0.00479581 -0.0207017 0.000642348 
0.00300665 -0.0200563 0.000565067 0.0126575 -0.0200026 0.000610197 0.0143576 -0.0185404 0.000569987 
-0.00554186 -0.0170784 0.000559896 -0.00266926 -0.0178252 0.000617854 -0.00888752 -0.0162276 0.000632443 
-0.0237349 -0.0159305 0.00103557 -0.00660808 -0.0158723 0.000687812 -0.00333765 -0.0157056 0.000697864 
0.00154635 -0.0164503 0.000905266 0.00280765 -0.0160515 0.000765026 0.0102586 -0.0155224 0.000628852 
0.0169585 -0.015192 0.000665734 0.00898531 -0.0132289 0.000658333 0.0101777 -0.0142031 0.000844113 
0.018908 -0.0141909 0.000709942 -0.00167176 -0.0132648 0.000702657 0.0214353 -0.0131469 0.000641686 
0.0108422 -0.0108895 0.000922458 -0.0190154 -0.00982074 0.000597452 0.00131605 -0.00884616 0.000705659 
-0.0154305 -0.00812902 0.000840509 0.004728 -0.00665881 0.000822379 -0.0098636 -0.00571284 0.000621664 
-0.0244417 -0.00482066 0.000603651 -0.0108025 -0.00456237 0.00060738 0.00409147 -0.00428258 0.000632057 
0.0148241 -0.0044191 0.00069293 -0.00953104 -0.00415889 0.000585441 0.0137659 -0.00383853 0.000791786 
-0.018228 -0.0024358 0.000898096 -0.00993081 -0.00297718 0.000675167 -0.0292171 -0.00253709 0.000671652 
-0.0115329 -0.000367704 0.000695164 0.00929372 0.0020745 0.000663268 0.0202544 0.00199005 0.000692486 
0.00936505 0.00362111 0.000599999 0.00563024 0.00741052 0.000598619 0.00749849 0.00733209 0.000809122 
0.022068 0.0062371 0.000808118 0.00157798 0.00990771 0.000903677 -0.0247252 0.00926399 0.000608255 
-0.0147711 0.0105227 0.00082969 -0.000246116 0.0114654 0.000585567 -0.0169269 0.011299 0.000735082 
-0.0131312 0.011232 0.000778886 0.0188423 0.0114882 0.000979259 -0.0132154 0.0122452 0.000560381 
-0.0157457 0.0137265 0.000594881 -0.00228105 0.0148477 0.000590131 -0.00426137 0.0155361 0.000713806 
0.000322306 0.0155193 0.000614078 -0.00797429 0.0165763 0.000615162 -0.00399157 0.0167476 0.000618959 
-0.0153846 0.0168225 0.000636291 -0.00255097 0.0169771 0.000601882 -0.00777138 0.0176015 0.00063796 
-0.00548939 0.0175448 0.000661814 -0.0123928 0.0190005 0.000677318 -0.00269878 0.0183131 0.000614939 
-0.00373152 0.0192959 0.00060207 0.000860291 0.0193322 0.000755988 -0.00182117 0.0203527 0.000627994 
0.0162986 0.0197012 0.000777869 -0.00431513 0.0203002 0.000637603 0.0124254 0.0235258 0.00063489 
0.0182576 0.0229149 0.000812109 -0.0110797 0.0240223 0.000745795 -0.0150656 0.0252371 0.000649351 
-0.0139584 0.0253652 0.000569189 0.0112026 0.0254921 0.000605142 0.0131512 0.0259959 0.000619365 
0.0142651 0.0256021 0.000730358 -0.00183892 0.0284514 0.000739424 0.000289818 0.0279791 0.000612666 
-0.00442333 -0.028389 0.00132591 -0.00211902 -0.0292072 0.000892613 0.00133466 -0.0293094 0.0013726 
0.00236894 -0.0290065 0.000860499 -0.00678092 -0.0283896 0.000881846 -0.00316855 -0.0279627 0.00164242 
-0.00210866 -0.0279949 0.000892679 -0.00015569 -0.0288186 0.000913699 0.00099555 -0.0281022 0.000595507 
0.00171572 -0.028366 0.00157031 0.00343062 -0.0285467 0.000826194 0.00474546 -0.0281747 0.000697615 
0.00600773 -0.0287392 0.000994176 0.00781363 -0.0281236 0.00160517 -0.0102761 -0.0273629 0.000586229 
-0.007935 -0.0277206 0.00059174 -0.00546367 -0.0282001 0.0017099 -0.00118854 -0.0272692 0.00137755 
0.00206992 -0.0278574 0.000686993 0.0085767 -0.0281539 0.000771895 -0.00853278 -0.0253391 0.000737748 
-0.00385419 -0.0270881 0.00097648 -0.00253648 -0.0269852 0.000814861 -0.000123754 -0.0273207 0.000565335 
0.000908139 -0.0267924 0.000738219 0.00277056 -0.026579 0.000888088 0.00347412 -0.0274439 0.000937835 
0.00417804 -0.0265358 0.000733895 0.00755789 -0.0271692 0.000647177 0.00908811 -0.0272597 0.00153919 
0.0115676 -0.0268955 0.00133791 -0.0104763 -0.025939 0.00164356 -0.00749689 -0.0258905 0.00174082 
-0.00380025 -0.0259818 0.00174429 -0.000589573 -0.0262244 0.000911771 0.00190027 -0.0259779 0.00122515 
0.00513153 -0.0260492 0.000958917 0.007063 -0.0266789 0.00185165 0.0100502 -0.0265979 0.00103308 
0.0124851 -0.0266488 0.000749197 -0.0146832 -0.0253902 0.00133236 -0.00887637 -0.0248315 0.0016509 
-0.00766318 -0.0248418 0.00149993 -0.0060684 -0.0257181 0.00162305 -0.00148738 -0.0255254 0.000627192 
0.000324239 -0.0256341 0.000866264 0.00253182 -0.0251997 0.000629534 0.0034773 -0.0257759 0.000601095 
0.00649536 -0.0254474 0.000668369 0.0076915 -0.0259517 0.00137556 0.0115452 -0.0258358 0.000698193 
0.012711 -0.0255039 0.000617135 0.0142597 -0.0256518 0.000611376 -0.0161946 -0.024212 0.00161141 
-0.0101852 -0.0236758 0.00125244 -0.0061689 -0.0244299 0.00127178 -0.002786 -0.0248801 0.00185794 
-0.000511522 -0.0248217 0.0011011 0.00190261 -0.0248116 0.0014866 0.003157 -0.024638 0.0015119 
0.00401108 -0.0247832 0.000732007 0.00518952 -0.0249101 0.000999508 0.00824807 -0.0249765 0.000609189 
0.00912703 -0.0248974 0.00125909 0.0102449 -0.0254098 0.000681195 0.011544 -0.0245949 0.000705864 
0.013513 -0.025012 0.00111411 0.0152896 -0.02508 0.0012256 -0.0088499 -0.0240319 0.000798492 
-0.00698991 -0.0236516 0.00157473 -0.0028089 -0.0237438 0.000994942 -0.00182119 -0.0243686 0.000847365 
0.000311567 -0.0240609 0.000683559 0.00167124 -0.0240112 0.000672049 0.0103987 -0.0241423 0.00127882 
0.0129483 -0.0231013 0.000589584 0.0139164 -0.023997 0.000660818 0.0163817 -0.0241853 0.000612193 
-0.0157612 -0.0230014 0.00161803 -0.0118 -0.022821 0.000712271 -0.0106308 -0.0225273 0.00131232 
-0.00954014 -0.0220202 0.000633826 -0.00773894 -0.0226753 0.0016874 -0.00590908 -0.0234457 0.00170877 
-0.00179038 -0.0231562 0.00131033 0.000778137 -0.0229936 0.000747419 0.00199988 -0.0229581 0.000585325 
0.00388346 -0.0232366 0.000603312 0.00660173 -0.0242803 0.000969417 0.00778954 -0.0237345 0.000973174 
0.00857553 -0.0236897 0.0018267 0.0100876 -0.0231593 0.00058917 0.0150357 -0.0239973 0.00101462 
-0.0106722 -0.0208049 0.00113926 -0.00748355 -0.0215868 0.00147124 -0.0058796 -0.0224801 0.0009614 
-0.00262359 -0.0226239 0.00176595 -0.000807227 -0.0222934 0.000777913 0.00818162 -0.0223732 0.000654426 
0.011167 -0.0227487 0.000801049 0.0125393 -0.0231061 0.00157689 0.0144146 -0.0229155 0.000933323 
0.0158363 -0.0226442 0.00173281 0.0164301 -0.0229116 0.000799703 0.0183934 -0.0228544 0.00186883 
0.0192267 -0.0221208 0.00141777 -0.0124518 -0.0213518 0.000755718 -0.00941698 -0.0209348 0.00136873 
-0.00427843 -0.0223043 0.000867085 0.000622569 -0.022015 0.00110442 0.00435522 -0.0218964 0.000599986 
0.00569515 -0.0217989 0.000665968 0.006655 -0.0212913 0.000637876 0.00911454 -0.0217035 0.000995556 
0.0102504 -0.0220144 0.000995059 0.0112579 -0.0214621 0.000746481 0.0121401 -0.0221241 0.000636111 
0.0133537 -0.0220393 0.00138804 0.0168896 -0.0210956 0.0019997 0.0178926 -0.0214389 0.0016739 
0.0201982 -0.0213471 0.00198623 -0.0116555 -0.0203694 0.000794877 -0.00993771 -0.0193746 0.000734728 
-0.00838507 -0.0204678 0.00146173 -0.00683041 -0.0204874 0.000838718 -0.0054215 -0.020777 0.000785479 
-0.00328891 -0.0215877 0.00109208 -0.00112752 -0.0211217 0.00125042 -7.49128e-05 -0.0211692 0.000767937 
0.00386602 -0.020877 0.00117966 0.00559025 -0.0208335 0.00142343 0.00788993 -0.0212226 0.00146563 
0.0116831 -0.0207683 0.00192843 0.0123817 -0.0213736 0.00139859 0.0144311 -0.0214212 0.00159707 
0.0156343 -0.0214918 0.00166983 0.0189502 -0.0211853 0.00197766 -0.0155539 -0.0192588 0.00191831 
-0.0147499 -0.0193677 0.000604174 -0.0122231 -0.0189278 0.000705228 -0.00758162 -0.0191725 0.000781077 
-0.00413482 -0.0205604 0.000985135 -0.00090161 -0.0202796 0.0006008 0.000607442 -0.0202147 0.000925344 
0.00168918 -0.0203132 0.000629049 0.00651016 -0.0203854 0.00135477 0.00755094 -0.020107 0.0011684 
0.010156 -0.0199964 0.00117639 0.0140814 -0.0196857 0.00152639 0.0171892 -0.0200037 0.00143382 
0.0184109 -0.019932 0.00238949 0.0202211 -0.020387 0.00146329 0.0211946 -0.0204326 0.00240331 
-0.0100663 -0.0179369 0.000889749 -0.00815851 -0.0182543 0.00130745 -0.00617745 -0.0192867 0.000709502 
-0.00487815 -0.0196101 0.00147516 -0.00261994 -0.0203305 0.000783492 -0.00042406 -0.0194757 0.0016518 
0.00215978 -0.0194129 0.00184192 0.00413799 -0.0194253 0.001396 0.00566019 -0.0194246 0.00146145 
0.00680154 -0.0193103 0.00112479 0.00936364 -0.0193383 0.000841842 0.0113696 -0.0198522 0.00127433 
0.0156337 -0.0196493 0.00175993 0.0195347 -0.0192733 0.00182872 0.0207867 -0.0194202 0.00210984 
-0.018962 -0.0182538 0.000606912 -0.0189198 -0.0182558 0.00197818 -0.0109449 -0.0166523 0.000617161 
-0.00408323 -0.0191875 0.00076117 -0.00245715 -0.0192752 0.000839978 0.000416119 -0.0188133 0.00140627 
0.00309936 -0.0183148 0.00164235 0.00834679 -0.0191029 0.00168387 0.00958809 -0.0186329 0.00183078 
0.0120478 -0.0187895 0.00103054 0.0135257 -0.0183644 0.00183205 0.0174802 -0.0183536 0.00205172 
0.0219806 -0.0186097 0.00183885 -0.0219453 -0.018788 0.000806259 -0.00887224 -0.0175014 0.000879516 
-0.00705977 -0.0165743 0.00145849 -0.00555452 -0.0181395 0.000697106 -0.00446698 -0.0178472 0.000707068 
-0.00346479 -0.0182386 0.00136707 -0.00157729 -0.0185954 0.000956292 0.0018172 -0.0180284 0.00125768 
0.00420763 -0.0183811 0.00104581 0.00658948 -0.0188024 0.00209738 0.0100892 -0.0176575 0.00174973 
0.0114649 -0.017912 0.00174113 0.0144351 -0.0171211 0.00228021 0.0157764 -0.0181678 0.00189424 
0.0185579 -0.0179666 0.0021207 0.0197303 -0.0178999 0.00212491 0.020863 -0.0180359 0.00175878 
-0.0205151 -0.0182551 0.00100569 -0.014171 -0.0164541 0.000815616 -0.0100916 -0.0159434 0.000590572 
-0.000885875 -0.0178553 0.00161011 7.46093e-05 -0.0178411 0.00102929 0.00256372 -0.0173098 0.00182561 
[...]
POINT_DATA 17850
FIELD FieldData 6
id 1 17850 int
930 4980 12051 16295 8788 9492 3288 17379 17839 
11672 12097 4685 3552 1527 14755 6405 16569 16699 
6085 4697 9747 9665 11805 12137 12311 5833 10618 
5955 9429 4502 4388 17725 4358 886 883 6431 
11364 6398 16588 17647 9227 11636 13670 12626 3797 
12057 11357 8362 10914 16846 6390 15224 10384 17340 
8031 13940 14908 7746 16115 8167 4632 4902 6867 
5549 10881 1153 17604 15775 17689 12527 11573 17638 
1234 9848 3520 4003 7838 6259 3135 16624 663 
11667 16113 15341 5678 5730 8514 3185 832 17335 
3099 2931 17541 15706 3940 7257 16823 7632 12628 
11891 16984 5318 466 15538 10532 4432 439 15334 
16924 17698 376 4109 6348 12788 153 11477 2074 
12226 15207 7259 2966 13600 974 13780 463 8378 
13791 5015 1736 5051 5977 16645 2058 12896 129 
4020 2580 10423 5039 5858 3672 4429 15473 15270 
1819 835 13434 1799 3106 14123 15697 11173 6269 
17368 17575 418 16781 8181 14767 10626 2430 10673 
2077 1435 8164 11484 3543 17154 3859 1447 12397 
3711 15877 17212 17290 16697 6591 15953 8679 8664 
4417 4494 15077 16420 823 12997 10230 9812 3799 
13823 3818 9681 10064 11525 13033 5542 11304 3813 
8493 4868 5007 5291 11720 11201 13340 9680 9872 
1928 8813 15966 17283 2543 17088 7776 13944 8291 
1845 9716 14696 5679 873 13225 3982 12663 8497 
2007 2425 8073 10463 5582 9010 5769 10840 12794 
9117 12581 2743 6588 1607 558 1368 775 17499 
10374 10006 1790 8837 5924 10157 5784 9692 7112 
17579 17754 12998 2781 3829 102 11184 15730 14049 
10573 11851 10791 5211 4444 3875 6817 8568 3733 
12115 15963 14367 9232 10682 5026 7094 7965 5186 
16561 17367 17778 11628 6847 13067 4430 12984 2060 
11956 13252 17709 6530 14358 10393 16672 4671 5453 
10934 6842 13303 3739 17802 13883 933 508 10385 
10314 8342 2396 1473 12153 573 4490 5361 14462 
11751 1258 17122 15206 16257 15935 7650 17019 7054 
14667 6475 11694 6366 15246 9604 3959 9461 6177 
4534 14388 1860 16142 14479 2924 11166 10696 10858 
7973 9385 2248 8079 5633 6457 17286 12653 2205 
10114 2402 16761 9810 1813 16156 17641 2625 13040 
16956 4318 2344 4562 8631 13430 6196 11669 506 
4361 8454 11501 11955 927 11503 10329 9925 6548 
8197 9971 522 16072 17108 2423 14436 49 6072 
5443 14107 10434 2699 13174 2198 8313 13387 11740 
1811 2094 3409 16933 15824 11014 16172 14082 5649 
1080 38 16647 17211 13652 317 11590 13114 16045 
16126 13263 1828 839 5750 2000 9625 2572 4414 
12520 13821 6478 17717 14210 11042 10974 14920 8336 
8369 17104 11589 5138 3239 12688 8441 17337 13898 
10668 6465 4633 9868 379 8666 17394 2648 11148 
13787 440 10864 11339 12724 6518 1076 16347 5671 
2992 14408 9359 6321 2702 16380 191 8807 17280 
16595 11237 17369 7955 16202 17142 7121 16470 6894 
11186 17686 13233 7730 10707 12443 8428 10930 2800 
11936 3640 15908 9110 9027 1344 11971 2838 12764 
16495 16719 11658 15982 4927 16513 17677 3922 13310 
17848 16465 1049 11612 15418 3203 15559 1545 15927 
8013 13147 9781 9318 12974 2612 9021 1443 14938 
12227 16130 194 8663 10254 4421 13569 11695 797 
17710 15324 16060 8898 14129 8110 4917 12870 11890 
7606 2531 15388 11106 8764 13051 16626 10392 8146 
5421 12474 11289 8915 878 1356 13071 444 357 
17298 13510 9726 2521 5451 1798 13046 2333 15544 
17134 11333 11282 15739 4548 8507 17222 9755 10458 
16616 7485 12308 2637 15462 9894 17637 16286 6792 
16855 10771 4680 16129 2726 3304 17149 6562 13282 
13092 2408 4847 647 11676 13857 1506 7307 14389 
14041 207 34 17111 1370 17755 10497 4266 14891 
16617 5290 13806 7456 14806 6712 11235 16352 7880 
2426 17230 3472 3705 4445 9179 6646 12605 14293 
6740 12212 17817 1761 17653 17275 3889 1803 15822 
7255 4083 187 1313 12318 5753 6869 6136 8782 
8492 4114 11392 14752 13359 7087 1599 3446 234 
10764 696 8593 16082 12737 8774 17075 2780 4312 
7635 7270 5724 2376 6990 11548 9731 4828 4888 
6805 5485 9011 5111 8540 9808 4596 17788 2236 
9188 12182 17756 1605 8997 5987 10667 16318 2624 
16362 15666 1580 10540 13095 8473 4428 3953 6701 
16086 10291 17339 732 17501 3839 17047 11581 14708 
4973 1472 3437 2528 15287 14629 14296 1540 17289 
1402 10863 7170 16785 5713 3325 2363 5840 6233 
1318 9152 3500 7804 11942 15790 14739 9302 11312 
3655 11776 4056 1231 13450 6892 5165 7448 8988 
16374 15820 10753 13097 3773 8657 14457 10778 996 
12248 7469 10725 10096 1930 15475 5945 5463 9036 
1773 5910 7302 9125 13511 12455 9002 17319 16937 
9201 14329 17180 1795 7579 5984 15876 5440 6811 
1381 17228 1138 14682 11093 13947 12682 6194 12014 
5030 10996 12368 5060 5248 1267 3079 17202 12306 
14380 2641 3816 17084 16892 11871 8863 9593 14508 
6711 3783 5806 7080 4992 12393 8205 2486 17078 
754 12377 15769 11583 692 17091 1956 6849 13445 
10390 4833 17274 10403 9782 8833 8831 6590 13441 
15255 9959 3988 9584 7927 7797 10560 15276 7972 
14459 8702 9414 13837 9396 10612 2705 9581 15350 
13861 14532 9408 3483 7 14871 11779 598 9948 
15794 1654 8175 2011 11277 11199 2778 10972 3784 
6164 10966 13745 5854 2548 3279 12890 338 13220 
10736 9752 33 23 7952 16121 353 2927 11742 
546 7979 10641 12732 3920 14792 13111 11510 17095 
10460 10915 6953 2085 3356 1054 2171 10402 17822 
16481 3666 8433 4841 89 3751 10854 2243 16947 
13058 4981 9696 12953 15173 6838 11697 5547 531 
1363 17781 9879 7510 6643 2014 6948 10213 8565 
10367 8081 1371 2845 3095 8633 13906 7774 11212 
5069 3370 15816 14302 4346 3865 3923 7864 6218 
14847 7232 14562 3946 6897 11992 2993 7821 10664 
4761 10372 6265 10000 1031 12015 12805 11303 9220 
367 17169 1550 6986 8375 3604 15606 8949 5042 
15608 17831 11994 8560 15401 15201 11974 1399 16152 
9453 10309 4710 11074 11714 6536 658 3272 5870 
6443 2122 6681 284 16555 14378 13647 6400 8675 
9252 5798 12100 4842 5797 16069 368 8712 9496 
14695 12472 1919 10119 993 3184 6294 4518 17109 
427 5762 6802 7607 2661 15155 5174 12479 10757 
15531 17026 6765 1618 10021 364 87 16497 16997 
4018 3392 8304 11206 4061 12965 9737 2369 16091 
3331 1876 1296 12209 7500 6768 10939 17076 2727 
14010 8153 5387 12419 3197 5685 12077 1537 2978 
13648 108 3998 5461 4059 11855 10227 16564 13223 
10520 4569 419 11788 2496 10940 13187 7166 5125 
5501 3531 10654 10054 11491 17488 2873 551 8789 
10017 3948 9515 12680 10219 12601 16225 239 4419 
15308 3445 9932 1490 16577 10892 17807 11770 17753 
14874 12215 6532 2898 10635 7986 14438 17082 13407 
998 5389 512 4945 8865 12322 7824 15240 17644 
288 4908 11376 6282 5719 3762 13690 7356 8386 
13023 9520 3307 7125 10137 14859 17219 13065 3913 
3788 12820 6820 1559 12617 14953 12903 15597 7531 
1858 8486 13060 14039 7251 10541 8926 8259 2372 
3443 1425 3098 198 14289 1388 12257 4248 5979 
3908 946 12002 17630 270 10051 14756 2854 4983 
7626 7339 12781 5109 13834 17454 2391 3037 8523 
7118 10502 15157 14583 4468 7909 8620 15044 3275 
14073 12808 9833 8034 17341 13943 5943 10044 629 
7405 238 1945 1309 1221 6597 7976 11311 14602 
7902 5367 11368 12465 206 17470 15678 17769 8881 
8618 13860 2318 9065 14298 14364 743 15837 7741 
3921 2480 12934 15328 2437 6828 4603 16402 1896 
1612 10210 1487 7304 13149 507 4822 2714 5972 
1906 1453 6499 9905 2970 6192 12509 5785 1017 
13815 11394 15071 4797 15751 10803 8547 7350 1962 
10011 8981 17597 5010 9266 5190 12258 9606 4044 
7109 2983 5606 5668 1357 11761 6691 5669 1431 
1772 5689 954 16701 12956 13613 15305 3167 16314 
8409 4718 14515 14454 848 9676 13514 2768 14936 
889 8144 3956 7950 11088 5571 7787 7736 1304 
11018 17514 4651 4590 4928 6887 11409 14381 5496 
12742 15099 4802 5381 16990 9159 17803 4184 11552 
118 6795 13410 1589 7498 4491 8704 15698 9950 
14561 7885 12435 11842 4000 15551 11006 5641 13980 
17402 11290 1800 11953 10564 2941 17669 13671 8583 
8538 1190 12310 499 13727 5527 15016 4196 2054 
5143 13193 12315 5246 6895 15640 1688 9567 12094 
126 3350 17317 2503 13427 10845 6589 9586 6249 
6716 1462 7978 10717 3285 1501 15142 4881 14117 
12214 14153 749 16803 8331 14954 16575 7271 8594 
4340 8478 7206 12326 6466 16427 13017 8965 10164 
7292 11572 4133 5480 10586 14048 5673 3201 11965 
14263 16782 14487 15598 13116 1129 6926 1434 14511 
1339 4161 14414 8157 2827 14155 15231 9729 16805 
441 8818 5725 1765 1247 7496 7960 14363 13018 
14689 11698 742 7188 7862 8117 16218 9759 3387 
2404 17299 14643 4526 711 15114 8075 10457 16634 
13408 1639 1409 8974 904 3869 1091 4958 4593 
11559 10195 7843 11809 17481 970 7858 4550 2607 
11621 3714 2517 7015 14838 9056 16562 14433 15858 
1044 5396 11084 14797 12517 13792 12770 13620 5301 
9303 7057 11329 6137 3870 7459 406 10022 2473 
15570 2105 7439 9481 6050 4066 13222 4239 798 
11814 8224 16192 5889 1909 9217 9405 2293 472 
793 1670 13667 10634 6399 13383 9108 12747 5555 
17540 1141 8422 13270 9638 72 243 15944 9160 
464 1725 6470 8494 74 7558 5697 8989 13465 
13924 14866 6386 17162 13244 14220 7837 2165 8064 
10677 4206 14950 13414 7418 2218 8844 20 9502 
8798 2822 10010 11131 10190 10355 13950 1777 10513 
2788 8787 11424 6944 11231 6309 14897 16293 4231 
2948 3417 3008 4461 16570 6148 14856 2413 3933 
17014 5961 4285 2767 8695 5317 7437 16623 9832 
7338 14383 2740 16791 11099 4499 13115 12891 8814 
15404 9103 8647 10365 65 640 10610 945 9809 
4460 12521 15399 1804 16458 6868 3662 14894 8571 
17520 5479 13509 9553 861 2462 6560 11185 15160 
12179 2660 8498 11283 11738 14406 3893 10931 17113 
11257 13683 11556 1990 4372 16327 15095 2189 723 
6934 3583 11338 11951 16223 6235 5980 17683 4127 
14481 17412 3535 15737 16397 5869 5150 3612 6936 
2500 6114 10987 17823 16723 14573 8797 141 17309 
2830 10078 9529 4403 8643 17279 14623 11980 6878 
8450 8097 4629 5437 222 8588 14215 11096 11259 
13767 5303 16043 4077 12567 9920 6866 9468 990 
10553 11330 1071 5391 15648 1975 1 5936 1327 
10140 17094 3825 11777 10528 5225 15719 1764 8516 
11101 7886 11847 7772 4792 11901 914 3142 1038 
6170 5363 10576 342 11952 11030 10588 7319 13574 
3917 673 8846 9420 7701 2613 15615 9803 10029 
11803 8253 1867 12181 9949 489 9494 12185 6689 
6209 12098 12192 1664 5599 15362 7196 2839 6122 
11481 6097 9182 11428 2915 106 11405 6923 14096 
17074 1088 6232 17760 13054 537 11745 7923 2603 
17087 6571 9153 4454 13020 3049 8087 9796 14023 
8348 5511 160 17320 4014 6317 10743 1311 13291 
10209 8916 3849 14664 10681 12721 9324 11433 13448 
8210 8859 5117 15636 4024 12244 15774 5296 5532 
346 14879 1652 2197 3617 1888 11988 15504 12359 
10918 15998 17121 9071 12604 11787 9722 10742 7126 
2642 16430 2679 8445 17678 11325 14963 12857 12631 
12926 16245 9619 6685 1523 2626 1444 16576 3100 
3346 15154 17287 2819 17800 9898 16664 9142 16972 
9015 17566 16705 2787 14846 8740 5705 6496 5887 
6428 13819 5704 12413 9137 10486 11513 4126 16419 
8242 11118 12643 6350 8625 10023 7832 10792 15464 
4587 13654 1459 9613 15509 13 15433 362 17225 
4676 5059 14278 5520 2844 2424 14431 16974 75 
8284 5988 2750 1947 13564 1301 13322 2859 4294 
7663 15572 7807 2138 16963 9270 17744 9041 5983 
11758 10273 11323 8140 1172 7478 14178 17603 14698 
10084 8525 16688 14484 14147 11618 2090 7169 626 
983 15432 9614 9757 12384 11939 5929 11736 11684 
9202 7603 1549 11086 14513 432 104 17382 10369 
7936 276 14507 9900 9918 9511 585 5884 14189 
14711 17209 11335 12312 15245 17771 3505 4895 6486 
5156 17618 12008 14822 3486 5857 11734 8121 3086 
2177 12957 3601 10956 657 15446 675 5787 1838 
15393 9985 15205 1627 14929 6682 13248 5452 6678 
7042 7137 277 8707 17816 6980 14926 3202 11132 
12651 17742 10105 1203 2590 12762 4279 11294 14733 
4537 6127 12336 15174 8621 13986 1525 1734 9149 
10812 14726 744 4046 4712 17314 10272 13828 3355 
9225 6705 17493 17504 12740 17223 8077 10253 10971 
16955 1063 14444 178 1898 14793 13951 2127 17762 
4194 7757 13266 5738 2732 4595 16032 910 15806 
16408 4954 12696 16730 14013 5691 13567 752 10172 
7380 9286 13937 11430 11172 13681 12255 12538 13956 
12063 14494 17231 3695 10310 1712 7070 12744 1593 
2494 3053 13449 5907 12806 10148 3076 773 14234 
12958 10977 14405 12980 15592 885 13605 8993 8277 
11292 10897 9549 2922 12987 6045 5653 16100 5041 
15089 6966 4861 6941 2583 3793 17529 1886 16351 
8646 11719 14977 15552 13934 12468 12620 2910 3439 
1347 8900 392 4577 9816 83 14827 94 15023 
10933 10775 4325 6514 13145 10301 9351 10161 2636 
3633 4399 1303 17593 8074 9645 8016 14889 16517 
17810 10098 1158 13490 16019 12898 333 13518 13056 
15465 12149 15571 16195 6332 9688 1005 15197 10980 
11757 12143 13309 7241 10145 12186 5802 9124 5270 
14396 15970 13173 3044 11060 3894 12266 8452 4467 
14654 7764 4952 712 16437 615 5514 3871 11058 
3242 6287 1050 2365 15553 7209 1941 11712 3171 
967 13987 5219 8914 15010 16451 7043 14892 3267 
1812 8424 8483 14301 16600 15213 6134 12423 14478 
16092 13373 9953 12701 8112 10052 3905 11614 9859 
15082 9863 16977 10284 3555 8642 14904 10850 9048 
17258 10013 13885 5304 8335 913 3663 545 3877 
9707 10155 2125 15190 12297 8119 2755 12647 13404 
11635 4262 4916 738 636 14984 17344 2831 3853 
12415 10907 14591 7327 12263 6570 8307 16666 13284 
8804 356 7425 7521 4994 15511 958 14994 17294 
15518 13878 7381 16464 469 13354 14935 12672 12254 
8289 1616 5147 6370 4892 5087 14262 3916 5780 
8825 9699 701 10640 5220 12524 5603 2071 11633 
1358 830 11158 2332 8847 6111 1319 15327 15507 
9644 7207 12557 7844 12081 4906 2909 1259 5016 
17132 896 4389 7294 1293 16288 4188 624 8161 
9068 2350 17259 6454 3631 4176 11469 3972 9436 
14307 4579 10722 6620 3629 1954 10240 15025 9207 
17525 9934 9450 11013 14318 15151 3806 10330 11012 
17034 9378 1385 8968 16452 355 13831 729 2450 
15655 10275 16681 14064 4911 5028 10627 6175 12053 
8103 3089 3872 4142 11296 6404 5836 14025 17697 
2353 4317 15254 113 2476 17107 15810 16107 2928 
12639 7548 10191 6482 13183 628 6520 1744 5513 
15535 17234 6190 7638 11443 14961 5596 7279 9715 
6434 61 11438 15805 16055 12593 4551 9903 10491 
11155 5812 1065 12132 8533 5636 10298 8436 7576 
6389 16039 1781 662 8815 10150 11334 70 8873 
4256 11422 11815 299 3632 1959 11467 1615 1996 
13165 3930 1767 7447 17362 3249 14428 11598 1793 
650 9630 10662 17270 10193 12354 3466 12079 9589 
592 8489 2117 3673 7346 16724 11743 12712 1878 
7549 2559 4203 14723 3351 17273 1450 8566 7362 
6007 15954 5613 9561 14944 1167 10593 1592 9896 
1834 13587 1243 6493 10624 9374 779 3430 8827 
10495 11602 7024 16285 16084 9165 8576 5411 12968 
8 11442 11960 13169 13698 5258 15461 1825 471 
5906 5593 14996 11829 6686 5658 4608 14684 15454 
5710 3075 9147 5025 5004 5971 5277 10606 12417 
11073 16228 17517 7946 13520 16931 14557 1695 5405 
10534 12012 6706 5500 3414 962 15061 4523 3692 
16965 3363 11176 15398 12026 2620 1741 1455 10174 
14360 14286 15707 15301 734 6396 13470 8170 6593 
10168 881 12823 8014 4405 69 10660 7503 14625 
3438 7987 378 15167 2657 15347 15489 13009 14717 
7134 6735 785 8853 6149 7239 15665 17518 17006 
11640 15913 216 15212 2364 16533 7535 16439 12164 
4873 11824 2446 1566 15778 1872 14046 16280 8310 
8790 10762 8886 11144 13547 679 8025 8371 6889 
2200 14056 3713 6837 17448 12204 8230 12217 2488 
9330 697 11455 4509 11516 8029 1889 11033 9120 
15005 17432 17063 11793 10100 1935 2281 8927 16105 
5845 6030 9583 10295 9090 7316 14902 10442 4862 
6829 10418 1217 2782 1438 8779 4355 11917 156 
13123 1669 3270 8775 11454 9858 4659 1535 6664 
11356 9029 7705 829 6412 4410 6242 11427 1756 
6955 10198 5288 15502 12116 5499 13528 5422 15657 
1383 594 5516 303 1273 2174 13723 5079 6442 
13010 6808 9556 7765 3338 17601 13032 9180 13357 
5414 13162 15517 4991 13207 17138 15293 1021 13887 
15177 5851 8962 16633 1014 9087 9889 9906 13805 
7735 7670 297 3967 13640 2216 16336 2553 5212 
14340 3021 4573 12978 11133 1938 14125 16267 3391 
15175 5365 2939 3009 8141 17037 586 15052 5187 
1010 14267 17424 5487 15932 6231 14156 17245 8442 
4037 1205 16609 16722 249 10708 17016 9249 16410 
16198 16590 9070 11457 3024 1943 13572 2259 3300 
13949 15853 6015 5761 17433 10925 4363 11421 527 
15150 5101 11062 4563 15840 15676 2863 1120 6981 
11926 6477 6297 8020 984 12129 13367 11314 8266 
17332 16466 9456 13077 3223 4458 13973 7715 17699 
3671 16457 2111 13900 4406 17039 15969 9539 16463 
5801 13959 6503 6797 17654 6675 16214 14915 10658 
13711 12042 17840 16872 7039 8872 12942 8212 15961 
17451 5397 12340 9510 5292 17462 14202 1315 6700 
15279 9064 2068 143 13661 8808 10779 2852 2734 
15480 12560 9642 7157 5412 224 5224 117 685 
3494 2186 4674 918 15582 5310 9922 1018 2045 
14764 14093 4670 16763 11077 15686 2596 17128 11190 
11888 11452 15204 14834 15595 4711 4274 15704 8185 
15933 7298 17206 10829 9430 9100 5559 550 5941 
6836 13845 3222 10202 17192 17838 1917 16707 9105 
421 13897 8352 13653 13888 12282 11299 2562 5508 
17038 3943 13139 7301 5179 2719 15170 1854 2046 
3091 16904 13904 4382 3452 373 4625 1760 4649 
7288 5433 14116 11256 971 3147 1685 12510 14145 
5333 16189 15524 2664 8463 2527 9377 9123 9930 
13463 17066 17013 7058 7733 12904 8777 12420 12854 
13429 1281 413 14332 3550 2253 5105 15344 12625 
11007 16259 7724 3955 12327 4365 6807 8306 16968 
11460 2783 16494 13629 6544 5315 5509 14547 9963 
5176 14670 7097 13893 13494 2683 2451 16289 10690 
3952 7011 5776 12425 8710 8696 8438 4547 12121 
16642 7790 435 14061 416 3149 2554 2428 10069 
13741 7671 618 6432 9541 9804 100 6506 11414 
10572 4665 6724 5226 5992 7861 1849 755 9908 
15376 16366 11986 13954 7639 12150 3821 6543 16952 
1382 12611 13637 3448 1408 7435 12981 7544 17311 
11015 1718 7104 1786 470 6563 10085 1404 15331 
1853 12489 16052 9671 3054 281 5568 15242 10289 
3227 14271 10004 4252 1572 5420 603 4656 15690 
14009 2240 6357 3557 12572 16007 2885 3152 11703 
10406 6300 4258 17673 14398 14736 8261 15459 1672 
1637 4856 15755 13200 3260 11389 15318 8947 2951 
13356 5490 6852 17660 11699 16264 15458 10720 1796 
4729 8257 2741 17813 13397 10331 1084 10903 2246 
5597 14185 1279 9575 1891 1111 16874 3389 1820 
1112 3805 290 14569 7501 9016 17815 158 16752 
642 1448 6158 15512 15962 13141 12157 4045 7426 
6480 15643 4849 502 11916 13005 14906 1066 2658 
10896 15050 6626 12525 2675 8603 3950 2255 9256 
15976 7377 13759 17543 16133 1133 7907 9382 5829 
7340 1597 1737 5050 3568 15884 10268 10581 4955 
9543 7396 11999 8579 1159 1292 15220 10695 2222 
15029 7836 929 7918 11963 1235 12793 7593 6788 
8956 16741 16850 8361 13810 6815 4901 16739 2667 
8591 3179 13363 13565 5967 3586 1433 9493 17264 
14283 14418 3129 16119 8627 15818 1223 6184 12104 
6427 9503 2858 13014 15051 15702 13364 1053 3525 
655 10467 16211 13399 2037 4990 16037 8420 11865 
11195 15960 5579 14851 14095 13203 1960 12141 8001 
12030 9508 4255 17153 10517 7756 3349 17705 8220 
1516 12834 16249 15745 11233 6065 7026 16766 3221 
12711 2882 7575 16291 11949 3944 703 14167 16144 
14273 7577 7749 9216 13830 2870 10127 1633 13764 
17126 1458 13585 8901 1030 17435 8617 4092 2687 
1270 17374 341 3229 3491 15381 15192 5293 12165 
5739 1209 14512 10075 7266 17479 2072 9856 11537 
4576 16164 2977 9428 5627 1331 10561 7035 6310 
12602 1879 11850 10855 557 12270 5537 10328 11390 
15759 9926 6047 12576 17664 5180 7494 4791 15620 
7615 14534 8869 1484 654 2557 7072 10703 14076 
433 14449 6380 13076 16683 15094 10326 17061 273 
14842 2850 15166 6095 10448 1020 9801 8785 16727 
3230 14624 8911 14410 7036 9409 7981 6775 3616 
12767 1720 3180 4995 17241 13607 720 14541 7924 
10759 686 11241 12316 641 1299 8668 9118 14311 
2307 4706 10278 8080 10751 3015 9521 1807 2581 
8935 2271 15394 7306 6603 14238 9979 16004 14346 
16503 9512 5841 3348 13229 13932 3855 12278 10420 
5193 1936 2996 9439 7333 4747 10666 902 12064 
8374 10287 11331 17098 15415 4108 5726 15508 12723 
16848 11857 2672 4337 4398 1582 12337 10170 13230 
16886 7393 10875 2481 13624 10426 398 9666 6182 
16350 2400 16341 10288 12372 4157 13159 12302 11115 
7793 7954 15668 6656 6890 9784 8534 3292 13611 
12655 1528 7905 13241 15756 13645 5860 17179 14425 
11145 7710 15866 16321 13717 9196 16630 3558 1815 
9792 8653 9779 9231 7560 15217 11495 4204 4065 
14734 8857 8739 3238 16698 8542 1916 8040 3070 
13714 3545 414 16520 6569 15830 5548 12686 15685 
16432 15222 13362 16871 14242 14699 15823 7022 13175 
14037 5076 6318 17780 15889 5093 11918 14246 17825 
3176 17265 8338 5245 15103 728 7847 15219 15594 
17631 1631 620 6252 12333 6627 5745 4238 10449 