# vtk DataFile Version 5.1
Generated by LIGGGHTS
ASCII
DATASET POLYDATA
POINTS 17850 float
-0.00941389 -0.0269391 0.00174041 -0.0123149 -0.0262642 0.00187062 -0.0126028 -0.0236725 0.00175784 
-0.0173316 -0.0233096 0.00174 -0.015043 -0.0225286 0.00176878 0.00741671 -0.0219893 0.0017996 
-0.0260479 -0.00432805 0.0017506 -0.0247062 0.00526221 0.00197978 0.0111919 0.00827619 0.00176164 
0.0092196 0.0195968 0.00187676 -0.00375354 0.0236194 0.00189943 -0.00645728 0.0261114 0.00178006 
-0.00750036 -0.0284723 0.00173455 0.00700118 -0.0285711 0.00207136 -0.0104577 -0.0274909 0.00205222 
-0.00835545 -0.0274528 0.00172995 -0.00662268 -0.0276836 0.00186948 -0.0061882 -0.0267654 0.00205841 
-0.00454298 -0.0277755 0.00219457 0.00919328 -0.0274685 0.00180943 -0.0114094 -0.0269122 0.00193206 
-0.00839229 -0.0260299 0.0018328 0.0109906 -0.0261531 0.00185909 -0.0156101 -0.024913 0.00181229 
-0.0138586 -0.0258118 0.0018567 -0.0103782 -0.0259835 0.00178365 0.00636008 -0.0264471 0.00203473 
0.013569 -0.0244597 0.00179672 -0.0164938 -0.0239374 0.00177981 -0.0142754 -0.0245739 0.00183993 
-0.0126895 -0.0249265 0.00196214 -0.0115781 -0.0246965 0.00173708 -0.0104234 -0.0245277 0.00179966 
0.0109424 -0.0249944 0.00187303 -0.00817884 -0.0231286 0.00183426 0.00920287 -0.0241617 0.00182267 
0.0102562 -0.0241158 0.00212065 0.0121321 -0.0233384 0.00180248 -0.0163413 -0.0229026 0.00175794 
-0.0144688 -0.0234688 0.00201125 -0.0134866 -0.0239166 0.00237612 -0.0188131 -0.0214776 0.00181871 
-0.017856 -0.02204 0.00180712 -0.0134455 -0.0227258 0.00177519 0.0106225 -0.0230598 0.00178551 
-0.0198175 -0.0218203 0.00171656 -0.0163594 -0.0215379 0.0017521 -0.014507 -0.0206139 0.00175078 
0.0114028 -0.0215627 0.001757 -0.0181543 -0.0205479 0.0018055 -0.0166746 -0.0204055 0.00174187 
-0.0130856 -0.0206345 0.00174871 0.00955711 -0.0203205 0.00177702 -0.0212804 -0.0202429 0.00174899 
-0.0155843 -0.0203619 0.00181066 0.0074933 -0.0195059 0.00180014 0.00848082 -0.0199776 0.00178256 
-0.018147 -0.0186859 0.00175621 -0.0170716 -0.0187407 0.00186539 0.00979619 -0.0190374 0.0018396 
0.0119953 -0.0195274 0.00181323 -0.01922 -0.0181919 0.00175761 0.00374908 -0.0184124 0.00185496 
0.0129544 -0.0184782 0.00178718 0.0195442 -0.0190241 0.00174587 -0.0223108 -0.0181866 0.00188491 
-0.0177287 -0.0165799 0.00174488 0.0113546 -0.0171257 0.00178434 0.0128416 -0.016898 0.00182374 
-0.0234762 -0.0177862 0.00173821 -0.0187055 -0.0170217 0.00176126 0.000272931 -0.0173578 0.00171765 
0.00375876 -0.0172295 0.00177365 0.00758959 -0.0160391 0.0018077 0.0118996 -0.0160825 0.0017189 
-0.0240217 -0.0168158 0.00181359 0.00254826 -0.0161848 0.00174069 0.00443403 -0.015852 0.00174264 
0.00611038 -0.0157413 0.0018236 0.0119755 -0.0146626 0.00175822 0.0139004 -0.015235 0.00185698 
-0.0242943 -0.0154275 0.00176135 -0.0147059 -0.0149702 0.00181263 0.000707868 -0.015079 0.00180736 
0.00355466 -0.0151207 0.00181445 -0.0126047 -0.0135799 0.00179824 0.00597951 -0.0128604 0.00239624 
0.0186273 -0.0158357 0.00183178 -0.0239125 -0.0142844 0.00175333 -0.0222877 -0.0141441 0.00176061 
-0.0115353 -0.0130179 0.0018164 0.00050346 -0.0136717 0.00176628 0.0143987 -0.0130051 0.00180984 
0.0176172 -0.0140673 0.00198404 0.0189497 -0.0138952 0.00175381 -0.0162998 -0.0122144 0.00176902 
-0.0138998 -0.0129806 0.00174127 -0.0127278 -0.0113228 0.00177958 -0.00686824 -0.0140199 0.00203623 
0.00333032 -0.0136557 0.00182534 0.00508856 -0.0134989 0.00248855 0.0159809 -0.0133278 0.00172802 
0.0199248 -0.0134061 0.00176364 -0.0259381 -0.0132365 0.00186104 -0.0217944 -0.0131547 0.00173737 
-0.0139712 -0.0114872 0.00175774 0.00244516 -0.0125889 0.00173929 0.0191116 -0.0121307 0.00180594 
-0.0223226 -0.0114364 0.00182169 -0.0130693 -0.0103099 0.00177022 -0.0114363 -0.0101034 0.00171468 
-0.00950934 -0.0109097 0.00178375 -0.00493701 -0.011646 0.00183869 -0.000248253 -0.0115824 0.00184226 
0.0158317 -0.0121144 0.00175761 0.0201252 -0.0119218 0.00173339 -0.0274609 -0.0105631 0.00179002 
-0.0240335 -0.0109498 0.00176601 -0.0104173 -0.00986902 0.00197108 -0.00240131 -0.0112021 0.0018117 
0.0257353 -0.00983049 0.00176953 -0.0261209 -0.0117393 0.00175007 -0.0225582 -0.0102107 0.00181474 
-0.00538442 -0.0106831 0.00175639 -0.00432625 -0.0104472 0.00177279 0.000521789 -0.0101665 0.00181385 
0.0195013 -0.0108611 0.00176763 -0.0244095 -0.00988762 0.0018539 -0.0181577 -0.00964883 0.00177189 
-0.0117049 -0.00907123 0.00173773 -0.0102745 -0.00877466 0.00185609 0.00688651 -0.0104765 0.00184216 
0.0110826 -0.0107495 0.00172755 0.0147136 -0.0103155 0.00197196 0.0198703 -0.00793606 0.00183846 
0.0244946 -0.00977095 0.00174873 0.0251984 -0.00785154 0.00179634 -0.0281195 -0.00869637 0.0018958 
-0.0261277 -0.00935962 0.00186026 -0.0231432 -0.00918536 0.0018173 -0.0198254 -0.00884758 0.00180315 
-0.000238157 -0.0089961 0.00176579 0.0109415 -0.00920829 0.00177267 0.0147145 -0.00905704 0.00180492 
-0.0258779 -0.00828204 0.00177494 -0.0249347 -0.00882338 0.00186887 -0.0238928 -0.00831383 0.00185775 
-0.0131177 -0.00754871 0.0017314 -0.00514553 -0.00852836 0.00174046 0.0173428 -0.00907792 0.00175964 
0.0250253 -0.00675622 0.00175889 0.026318 -0.00774828 0.00174272 -0.0185659 -0.00750083 0.00172004 
-0.00996151 -0.00694887 0.00176827 -0.00828092 -0.00903874 0.00172255 -0.00540225 -0.00749964 0.00181067 
-0.0035087 -0.00762706 0.00183063 -0.000850799 -0.00801079 0.00174463 0.00234554 -0.00700617 0.00174303 
-0.0268924 -0.00705769 0.001764 -0.0241854 -0.0066128 0.00181205 -0.0233077 -0.00739036 0.0018369 
-0.0197964 -0.00647827 0.00173034 -0.00453088 -0.00623363 0.00178078 -0.0026926 -0.00688089 0.00183406 
0.00140976 -0.00639167 0.00173641 0.00593484 -0.00752678 0.00183258 0.0130277 -0.00681613 0.00181401 
0.0181582 -0.00743161 0.00183704 0.0209718 -0.00607177 0.00176539 0.0251005 -0.00560501 0.00174319 
-0.0287218 -0.0056869 0.00181628 -0.0245395 -0.00484497 0.00172737 -0.0208657 -0.00613671 0.00179774 
-0.00584112 -0.00647238 0.00178734 -0.0017306 -0.0062772 0.00179383 0.00788818 -0.00719988 0.00175919 
0.0122376 -0.00590106 0.00177928 0.0169644 -0.00688583 0.00173675 0.0196035 -0.00633285 0.00181726 
0.0219907 -0.00553696 0.00175882 0.0229559 -0.00606366 0.00178997 -0.0271367 -0.00484358 0.00186431 
-0.0107129 -0.00416451 0.00211474 -0.00192223 -0.00516487 0.00179015 0.000489909 -0.0050929 0.00185762 
0.00589755 -0.00633349 0.00180173 0.00666119 -0.00529573 0.00183226 0.0186088 -0.00590485 0.00174378 
0.0205136 -0.00508034 0.00174849 0.0266018 -0.00497523 0.00182405 0.0277185 -0.00445328 0.00200176 
-0.0236359 -0.00311903 0.00181719 -0.00435046 -0.00508641 0.00181858 -0.00325128 -0.00461595 0.0018384 
-0.000312531 -0.004397 0.00183848 0.0016752 -0.00422644 0.00177923 0.0037506 -0.00514535 0.00179248 
0.00803724 -0.00457676 0.00178752 0.00905997 -0.00421644 0.00174199 0.0116811 -0.0048966 0.00172479 
0.0190211 -0.00493681 0.0018056 0.0195886 -0.00397112 0.00181514 0.0230508 -0.00463506 0.0018367 
-0.0263213 -0.00323081 0.00180004 -0.0252881 -0.00243684 0.00181005 -0.0185628 -0.00241357 0.00173034 
-0.0151166 -0.00538799 0.00172524 -0.00651119 -0.00419624 0.00174841 -0.00229422 -0.00413548 0.00174767 
0.00268265 -0.00374652 0.00194969 0.00559717 -0.00448129 0.00178832 0.0180092 -0.00411615 0.00175198 
0.0277413 -0.00338812 0.00176792 -0.0291898 -0.00289024 0.00179982 -0.0196142 -0.00227274 0.00176477 
-0.0138124 -0.00296832 0.00175938 -0.00986088 -0.00343713 0.00178368 -0.00566712 -0.00328175 0.00177295 
-0.00317536 -0.00308093 0.00178487 -0.0216694 -0.00157979 0.00176729 -0.0168506 -0.00244739 0.00183588 
-0.00890291 -0.00271252 0.00181645 -0.00438857 -0.00278006 0.00174585 0.00319101 -0.0019633 0.00173611 
0.0217805 -0.00205223 0.0017415 0.0246569 -0.00222182 0.00171621 -0.0249597 3.30626e-05 0.00178547 
-0.00778743 -0.00172016 0.00181835 -0.00652437 -0.00146774 0.00179606 0.00251118 -0.000862345 0.00180902 
0.0260636 -0.00177865 0.00173606 -0.0215794 0.000996813 0.00172326 -0.0121436 -0.00138805 0.00192759 
-0.00818244 -0.000626021 0.00182196 -0.00273326 -0.00146382 0.00181359 0.00380099 -0.00095011 0.00175996 
0.0140011 -0.00113367 0.00175483 0.0251298 -0.00128517 0.00173747 -0.0263107 0.000422807 0.00177555 
-0.0237093 0.000970169 0.00177403 -0.0111261 -0.000248285 0.001945 -0.00506937 -0.000278125 0.00175396 
0.000102467 -0.000319165 0.00177804 0.00923091 0.000292432 0.00171264 0.0123269 -0.00080376 0.00174633 
-0.0226048 0.00134802 0.00177631 -0.0198522 0.000239758 0.00195591 -0.00816515 0.00058056 0.00177047 
-0.00303008 -0.000153279 0.00177702 0.0143141 0.000695907 0.00177899 -0.0255515 0.00278465 0.00174467 
-0.00920906 0.000834765 0.00174595 -0.00719349 0.0015333 0.00179956 -0.00330255 0.00101495 0.00175063 
0.0229269 0.00125459 0.00175013 -0.0211104 0.00190451 0.00171278 -0.017587 0.000817188 0.00177379 
-0.0148808 0.000964081 0.00180385 -0.0127362 0.00138964 0.00177257 -0.0108152 0.00177501 0.00175017 
-0.00983391 0.00240438 0.00174848 -0.00146886 0.00286621 0.00174142 0.0260116 0.00165929 0.00180209 
-0.0162163 0.00171778 0.001766 -0.0146959 0.00251683 0.00174877 -0.00715493 0.00354356 0.00177499 
0.00109436 0.00270595 0.00182151 0.0130045 0.00307263 0.00175839 0.014507 0.00282829 0.00185855 
-0.0134172 0.00250705 0.00179822 -0.00982692 0.00350785 0.00173681 -0.00822747 0.00393251 0.00182182 
-0.0050974 0.0036142 0.0018564 -0.000877883 0.00384007 0.00186022 0.0245917 0.0033289 0.00178912 
0.0292648 0.00245546 0.00173264 -0.0181356 0.00398858 0.00177481 -0.0162129 0.00374158 0.00190976 
-0.015147 0.00348713 0.00175141 -0.0103676 0.00500493 0.00175071 -0.00634119 0.0043716 0.00188779 
-0.00359889 0.00430744 0.00179322 0.00227408 0.00387511 0.00175565 0.00548094 0.00408795 0.00184448 
0.0131358 0.00457184 0.00179157 -0.0114623 0.00479319 0.00183972 -0.00862852 0.00499187 0.0018055 
-0.00398457 0.00559654 0.0018129 -0.00260924 0.00477339 0.00178945 -0.000905343 0.00516123 0.00179507 
0.00126452 0.00498301 0.00173047 0.00262618 0.00578117 0.00175135 0.00575773 0.00512346 0.00179843 
[...]
POINT_DATA 17850
FIELD FieldData 6
id 1 17850 int
5484 9718 6304 6021 5031 7975 16118 5926 4269 
12782 5273 8275 6027 11686 12461 6741 12004 12481 
4278 5377 322 110 10445 516 1202 511 5826 
3131 11825 3406 1200 6747 1951 14331 7527 5361 
15616 2123 5395 14074 8973 4591 14854 3915 14433 
17581 4691 5683 10867 2153 6796 4404 9330 11127 
321 17486 10124 17805 11113 2657 5074 4758 14113 
11084 16682 3161 5808 2221 1069 17318 3869 17131 
9283 17297 17159 7357 16872 6323 2920 15092 1741 
10815 14717 1814 7363 1356 17021 8011 16801 15578 
7180 3940 13211 9546 17291 14811 6589 9661 5558 
3463 9655 5542 4985 12844 17490 10895 11336 11962 
5170 12329 12046 16057 17248 7553 4146 17399 17240 
16950 16347 1571 8816 17850 14133 16086 11364 1435 
3811 12886 9045 12770 13749 5749 5950 13950 5504 
5544 3876 6224 7463 8231 6186 16955 14532 10837 
12580 14042 3643 933 17185 5139 15558 16828 5964 
8846 11957 10752 12037 11185 6310 6044 9822 10648 
12282 8887 13543 6363 7220 7480 1491 4185 5497 
13871 12444 2524 13958 9809 3706 2463 11550 14072 
5117 14922 12867 9703 14523 6107 14096 1711 6772 
10965 8070 11661 7028 13510 9626 5919 10004 15040 
14507 17121 17800 3614 14326 6961 5793 5219 5752 
17401 11357 11856 8663 232 15856 5223 6409 16726 
3704 8573 5713 11626 3006 17023 1331 6705 16763 
11730 12496 15105 14733 16694 1376 5388 17031 17027 
13242 14655 14986 9494 11453 9521 16301 11487 17237 
8713 17734 10966 14407 9806 17006 16362 10329 809 
17787 8534 11890 17363 17827 2758 15307 3227 16581 
877 5724 13065 14879 4770 16063 15255 9593 14448 
7861 12412 7740 13178 1053 9705 17538 8856 14092 
5886 4482 9246 16716 16374 5174 13750 2433 11678 
2477 9008 575 6445 11206 15055 7161 225 8217 
2341 1879 17689 5066 16919 4585 11161 1381 3685 
14261 16905 15217 17099 17339 7005 1841 9657 2561 
8228 9591 5283 2766 14690 6798 14892 12626 2829 
11710 10347 11244 3946 9498 7192 13085 11430 16403 
14371 14148 1972 12664 9028 6274 13406 10219 12967 
14279 15744 15641 14347 16725 12756 1827 1715 16470 
11630 15335 7361 17213 16983 7043 12086 12993 1837 
3402 2470 16844 1684 17662 3466 239 3912 4415 
10657 6605 15014 729 10799 16841 9319 5122 5334 
5338 6051 4344 16810 9255 6099 11967 1550 13170 
16936 12134 9234 10427 5613 16099 4055 6133 11012 
296 3894 12370 17439 12751 15905 14350 6574 6823 
14997 12552 3506 1219 11719 6902 2995 8067 3293 
11109 3017 4865 17454 6672 12081 4349 16190 13053 
13372 12294 6354 4506 12020 1446 9265 8506 5711 
8328 6613 11471 2586 6254 7569 7325 17436 5456 
1166 352 16227 3843 9236 4993 5242 5407 6640 
16205 5986 8544 4937 17357 8014 5161 17648 7183 
11167 9982 4752 6614 8689 2534 16271 4479 12147 
15711 10428 2000 16662 9887 1316 15060 3150 2608 
386 15039 11249 17629 3696 2720 10001 10028 12632 
15167 132 9914 9744 2200 15990 17635 1294 16381 
9777 9759 15919 11421 829 12759 4160 13262 8413 
7605 4494 2473 17122 7678 5773 9328 15583 17212 
15136 6261 14265 14561 1895 12595 2703 16087 4732 
1284 16949 4438 4515 15469 1276 4725 11176 14048 
9681 12264 7389 15974 6487 3841 11069 4079 316 
4780 12280 12202 16996 5238 358 11455 14192 10988 
17067 20 15178 12713 2199 10435 7668 9055 8416 
5786 504 5725 6006 14177 14164 14807 14689 14797 
3609 5648 2892 12556 3926 1541 10998 7885 8966 
4429 865 15551 3291 16076 1642 1877 7004 12622 
7915 1415 5276 4666 12923 17626 9135 16428 2235 
16884 16145 17611 1008 7189 5423 2241 8206 17137 
15203 15966 11594 10090 12545 4491 5002 5051 16781 
3590 6248 8616 12228 16431 13324 7299 14327 1462 
1480 15576 5851 17686 6372 10834 2316 9794 2529 
7441 627 14637 14100 15661 16310 11820 2549 6843 
5437 5599 5555 8664 9925 15563 17405 12107 2954 
17610 12555 4904 9076 608 9091 5936 2941 6351 
6836 2201 3375 15852 2327 12328 1970 16442 13661 
6886 15953 11116 16849 13225 13528 18 294 13573 
17414 10905 5092 7095 13720 9740 13270 7246 595 
10838 15649 942 9485 14079 6396 17426 4035 10619 
6900 5784 12234 7733 6530 10586 5055 8706 12940 
625 1666 7470 12378 6603 14346 16400 7555 3308 
14032 12411 13143 3151 13867 1489 9187 16114 16951 
5433 9944 7446 17614 2648 11592 13039 9800 2097 
7858 14436 10697 4098 4818 630 9815 5875 15484 
12035 16357 12846 10424 1022 13488 14838 646 10 
5037 1308 13846 2280 14799 15824 621 8105 226 
3304 14224 9820 14550 12915 16629 8461 14635 4190 
6267 10737 3619 9979 8855 15250 15718 1947 5137 
9999 16573 15835 11014 13848 4454 10798 3525 13171 
10355 6588 16457 13504 12365 4226 5005 2587 11502 
9189 11752 963 1129 9749 16096 4881 3353 987 
16009 11208 836 10507 14193 15590 1420 11264 755 
3644 7376 12638 5945 1054 3783 13266 13020 11501 
14457 2568 11053 17077 2188 15972 8612 10621 16649 
12946 9069 7434 7532 5303 710 15377 16757 2160 
5352 11478 8795 14778 11882 11988 17683 2708 13097 
9149 6966 12321 2383 7869 16914 5584 8134 8880 
13566 15465 13955 12958 9218 17103 12870 15748 9976 
6256 16464 10305 4588 17313 4596 1948 15263 2962 
11803 13179 6767 12497 9468 5530 14615 16181 1627 
10073 2230 7612 17323 14816 17170 13847 12631 17412 
11918 1472 8312 3896 1982 14864 11026 8130 5727 
4102 8306 2298 14948 11703 13624 557 12015 444 
7036 10093 1340 10273 13200 2949 8435 4813 16367 
12303 14249 17603 13267 16845 6191 9324 1195 16304 
11074 5988 6547 8284 1463 8729 9379 11738 7486 
1499 1960 7398 10652 12970 8384 13152 7270 5754 
2215 6807 9344 644 5638 14855 12576 17522 6118 
17609 17140 17848 16753 17386 11734 17678 17139 4339 
14906 6773 17280 4174 16390 11802 12709 4475 10243 
11583 16143 12862 13441 16555 1393 8091 10244 8668 
7834 9259 13298 4112 9346 15636 13591 10283 14314 
13364 9959 9036 3599 10674 16360 8406 11037 13461 
4383 1418 3257 7119 10049 10341 4416 10486 690 
5182 12834 9682 9879 17807 4537 6874 9719 6723 
10474 9017 1494 7170 1545 7577 3307 2557 14376 
4644 11469 3550 10429 12314 7229 15443 12196 7763 
15274 14247 4225 1066 3888 7720 8911 1377 13544 
12735 13310 8153 4739 16462 8220 1773 16020 10384 
12350 2136 10002 4956 12415 4597 2577 10272 6091 
9785 6572 3491 13420 11620 14474 16261 8119 413 
1734 7847 15407 7154 11960 15688 16441 10137 16631 
9061 9859 15579 13940 10419 12746 11565 1723 5785 
14555 17511 13762 14681 8913 4114 10712 15023 12888 
12291 15553 15116 2422 11731 611 16614 8281 8633 
17102 13558 15042 4315 14186 13748 11160 1474 5072 
16743 13216 17561 9939 9204 10395 10611 7205 4986 
11419 1969 5159 15647 10082 16476 2453 1134 9557 
9608 8905 14098 16160 3558 1652 7669 13644 11103 
9022 10782 325 7833 15772 4162 2185 7149 482 
1644 8431 16247 14633 16724 12849 7902 8278 7697 
17466 15429 13038 15146 16971 9605 13922 5672 8993 
15644 6638 16353 15149 13373 14087 15155 14067 13144 
16920 2717 1145 16074 5721 14195 17554 12763 344 
14998 13815 509 7101 7526 7355 10937 10360 10324 
13016 6690 3171 8968 2120 13725 12783 10746 10776 
14538 14369 10373 12398 15745 2254 13185 13058 6699 
5689 7775 12701 15257 13401 15742 8994 3234 5585 
7531 7636 2581 17477 4755 186 10362 7327 270 
3727 3766 783 6938 8182 12534 10635 13880 10909 
13850 13452 14727 1410 11307 17150 10758 9915 6317 
13664 5244 2125 2904 12343 6729 17585 10495 12494 
13531 16854 4984 6394 10421 11790 5360 2438 8083 
4634 398 11381 10680 3371 17034 8269 8800 6870 
11832 1105 10330 15831 15678 16128 5989 9609 8351 
578 4574 13719 13379 681 6126 2117 7930 14874 
4827 1221 1241 7020 11608 9606 14802 15909 11111 
6370 12850 15999 1600 10590 3164 7237 15341 221 
16836 12903 6504 180 5384 1033 263 10552 1579 
12564 13550 17068 12730 11852 5620 1046 10566 4718 
14917 3080 7227 17254 8338 9545 2389 7864 5802 
16206 3613 5790 6510 7084 649 3928 4872 5592 
98 14151 9457 1193 13145 15911 3390 10397 8022 
3252 806 17605 1406 17109 13534 17696 16401 15223 
6540 10521 4983 16550 55 9589 16228 14533 10504 
17572 5501 2469 16811 15382 7067 3267 7812 2816 
11990 2937 14256 9934 1976 12562 5035 7565 3845 
17443 6458 10972 9082 8465 9436 10804 15045 11551 
9853 7064 8626 5900 10851 6636 12864 13153 2421 
13638 4058 2194 16069 15120 11748 12956 14599 12087 
17048 523 11341 10836 8323 8741 6066 2352 9905 
15454 11886 1846 8 2592 2559 5369 13183 6956 
14621 1788 4733 7509 16038 14105 4182 4276 2082 
10585 409 6018 5048 5675 1942 6687 2005 11584 
16468 1782 17492 11570 12765 4559 12542 735 8892 
1194 10692 1690 10226 6288 78 5751 7705 8615 
2837 12559 2939 14496 14813 16940 16240 12657 8775 
10626 6749 7014 14868 13077 4717 8363 7978 17366 
17541 10169 4853 2775 2489 15492 4161 31 11982 
1800 11006 10718 11789 13465 5774 8962 14416 5903 
8538 3251 2654 11893 147 1224 65 12061 15663 
7265 10100 13368 10425 2184 2054 14974 14153 2572 
2618 3416 6217 3034 8933 7723 9415 1010 9674 
4734 8924 7696 16172 3544 16856 15881 3692 14683 
9064 4153 1352 16575 4660 15735 10177 5746 14957 
12766 4887 5895 1395 8876 12800 14819 6808 1094 
5465 14101 8819 9560 2388 12267 8931 14158 166 
15273 12919 1725 803 16094 16597 1552 3048 15397 
3925 10724 970 10954 16860 7239 10916 14286 15845 
406 11751 7558 13931 5168 5216 13013 2936 16556 
7256 2384 10501 11004 1178 5625 13563 7431 14522 
7503 10511 9427 4735 3569 12457 11873 11329 2485 
5673 13812 4464 5839 17461 17049 8055 10714 9975 
12688 4175 11975 2924 7210 17282 3870 13823 16944 
12654 12399 3914 13924 7751 7438 10807 8194 3596 
3102 6094 12130 3194 17253 17448 10827 14946 8844 
6553 9273 5707 15460 14529 1187 2022 6745 5235 
4679 1554 4760 11136 9251 10230 10933 1939 7488 
9992 8490 7243 10269 13895 1659 5355 2445 2759 
4795 14464 8142 13533 6860 2966 12206 11281 2851 
14357 3436 146 14745 8057 4253 1409 12665 3718 
5230 10925 5272 3317 15939 124 7999 7582 5855 
11476 3588 13180 11440 7681 9216 6457 8039 17156 
1197 12073 3884 6365 15878 5052 5274 7629 11423 
9110 16588 12799 11851 11434 3278 15980 1281 14987 
12110 7893 1122 16234 8882 2946 9652 3137 14749 
13780 1887 16484 2861 8199 4365 10173 5463 9940 
15424 10990 15077 3904 15434 7989 14461 8222 15602 
13367 6604 1043 17352 2762 15189 16311 14954 14928 
15325 4581 12338 14057 11343 2169 1076 359 12856 
5566 6386 11314 12817 1104 15670 1018 900 932 
5186 5540 7204 8248 6144 5783 6521 16620 8488 
16157 2691 2224 7907 16664 7301 2788 5047 3219 
8226 16188 5383 16655 10389 990 11465 7788 3813 
7197 17298 16124 3640 3352 8777 10529 3049 2046 
4748 16409 16243 9756 16901 7904 14252 12025 8782 
6728 16126 1063 14183 3780 17484 15793 10788 17057 
16676 12528 14971 5847 16729 16268 4402 8934 14278 
5222 9963 8859 12010 2111 13182 17564 1081 14051 
11411 13852 9665 12207 8257 15559 13677 11518 472 
886 5179 10351 9880 4582 12819 4959 15637 15358 
2987 16525 13291 15572 17011 1213 15615 3816 13174 
11489 5946 12352 1497 12016 2465 16762 2274 17723 
9700 10610 4423 8004 11654 16508 10222 11910 16867 
13511 7984 9737 5440 13923 926 4665 3320 6063 
17508 12434 3029 13933 12190 14848 5503 1133 7712 
16050 17770 5018 9688 1796 9692 6536 5814 12377 
143 17608 14636 493 15591 12523 12185 10371 17606 
16421 1459 9426 10455 839 7011 11858 12356 8916 
4810 14885 9933 7173 14794 7880 7212 1763 15195 
11862 11670 1414 1830 12244 16011 17811 14120 14624 
3738 16551 16419 15174 2641 10228 6980 5231 15160 
13641 7127 8140 6498 9563 1770 7849 14412 3726 
3885 11147 9726 2362 15857 16133 6265 11699 10509 
17091 1597 7476 6824 8240 13545 6809 16574 3113 
3425 7485 9641 12040 16481 2039 340 12926 4699 
17422 3174 8107 11539 11742 10263 2844 6685 8460 
7777 3335 6260 13479 3313 9038 15555 15976 1244 
16389 10525 2197 686 16785 12255 15475 4556 15717 
17435 6247 3100 11942 15487 16642 1097 1123 40 
11776 3082 122 10253 1102 10721 10033 10629 16406 
11082 17084 13755 10764 6689 10577 11197 9920 16599 
2443 15667 2619 10401 17225 8532 8121 989 10000 
12270 9731 1400 7194 14834 5096 14751 16739 14963 
17543 4279 2590 17039 3601 16900 158 16196 7083 
5970 12050 17792 11145 13804 5110 7217 1135 5473 
10543 12057 17413 17566 11520 3079 10753 1350 8326 
10596 4439 3342 14592 13026 5180 11143 8500 15101 
3656 11482 14162 15504 4577 16100 13798 7756 1614 
16735 13594 13889 17593 17189 7745 6884 10344 7799 
10057 11675 11159 7710 2461 11664 11629 3846 13166 
7890 5750 9784 17223 8848 17209 14712 17221 16175 
5804 11714 16776 17721 17340 14781 1917 14223 10088 
11060 2819 15827 6285 16276 12729 6846 5610 6875 
1306 654 14076 10977 1112 7800 3923 10704 14830 
2879 5050 8086 4332 4049 9831 16465 15173 5977 
15594 7564 15608 14654 11618 10679 8177 12161 12120 
13737 14250 5957 3348 6865 13911 16455 9873 4957 
4122 10037 5304 15513 15472 5057 16144 15876 10402 
15248 15769 531 17262 16171 5030 335 8361 13964 
2095 1795 7584 14558 3878 12893 17269 5827 7501 
7798 7713 12306 13466 7693 11361 15147 2610 9577 
875 14298 3170 1848 17087 17093 3230 13014 2705 
10755 1794 15545 9594 4892 16071 13553 15739 2114 
16913 4097 16863 11668 12102 13322 16788 10218 6016 
12125 3451 12840 412 12748 16251 17296 11691 9625 
2576 7390 8617 8542 5430 5674 16412 1717 6054 
1857 11251 17680 9471 9918 6121 17050 11596 8524 
9201 5863 3383 5438 16899 10664 14497 9378 9020 
7178 11985 14521 15214 4264 5906 13319 7339 15164 
5506 12251 7677 12690 3078 10627 9349 13590 1124 
6957 4138 17199 9268 17219 16437 6883 1620 15090 
14396 15017 11876 8897 8173 11643 860 13885 6182 
10066 7072 6360 14688 10809 5652 10939 4152 1199 
12049 4030 3611 11443 4443 17547 1674 13690 16891 
4290 17568 13331 16161 1372 11756 15025 12404 4110 
17620 15983 15368 14756 13237 5948 10312 15392 12966 
1362 6731 2084 12213 2361 11470 13063 17766 8680 
5513 16848 7576 10601 1983 12884 8622 14609 8042 
17361 4350 17672 6441 2353 11255 5536 7793 3490 
1536 5271 3864 4014 3607 13413 4842 12021 11970 
9272 15027 15651 9050 1825 14240 13784 16618 1263 
14242 5865 10633 6564 3053 1988 16039 16113 1013 
11180 2456 11757 2609 41 3156 13921 14395 15837 
15431 5241 17268 16 14454 436 12948 2291 1622 
2325 4354 94 6228 1858 1954 11461 14136 14808 
11739 10884 3275 4814 4570 494 13296 14353 10092 
2034 10512 1100 11227 15746 4796 8189 4321 1357 
15606 3901 9241 16335 12084 3044 6615 5229 2714 
15479 4908 8981 10274 9497 16107 6335 9465 6041 
13894 4945 6468 9231 17528 15330 1183 17306 8255 
1108 5654 11044 5153 2807 4029 889 1621 8289 
10789 16652 1919 2495 17074 11713 8050 3282 14438 
4727 13608 12865 9670 8089 8347 17818 9955 1496 
2003 64 10116 11602 9362 13460 1616 3210 9460 
2803 7123 7359 17769 15374 10476 1150 11368 6600 
15476 10579 16334 5512 5245 16061 7641 17649 9956 
12024 1625 39 10366 8103 7597 387 1453 17831 
17684 12929 10189 9643 5862 9506 7647 2491 8602 
636 1388 9698 6849 2243 17453 15971 8163 4866 
16780 12540 13047 4954 844 5818 3635 1628 635 
15074 9161 4771 574 400 15623 4214 13831 4826 
5300 8468 3064 3509 5125 1302 13562 17273 16985 
16514 6276 302 3675 14857 13236 7760 17300 14062 
2753 5779 8547 5780 9243 8132 1865 223 6493 
4647 4824 2983 9516 3740 7135 6828 7550 5710 
543 9622 8283 4156 567 6736 600 2684 6516 
14859 3665 3916 4899 8545 799 5277 9264 1643 
8137 6748 3654 70 4603 14674 5614 16501 17642 
909 1906 8907 16012 6760 1902 7781 6895 11360 
16534 13409 12731 7034 15386 1751 4144 1007 13777 
12788 17370 1731 1590 3011 15477 1728 17376 7148 
10061 17778 5353 7627 13459 8028 1056 17730 10888 
2168 11078 14267 14321 5079 530 510 11822 6804 
10840 6130 3369 6735 3561 16504 16740 7708 5771 
4221 1407 8870 2418 2522 9941 16782 16546 6724 
16103 9376 2007 15047 2110 12326 2006 8781 5232 
12876 14403 10568 173 6479 1397 4811 6557 16976 
1461 10818 8688 184 5019 11252 123 4690 4649 
13139 8902 14982 12960 12065 9720 1938 1909 1607 
2667 4860 366 8115 5082 15365 291 16295 14109 
10885 14368 15206 10081 5681 5643 17513 457 11450 
15011 7533 10534 14643 12026 12561 13208 1923 8331 
14776 4564 810 6871 264 6676 2328 16878 12355 
8321 6201 16370 5039 13088 4536 2900 9595 376 
5044 16046 17251 16771 2474 9090 11600 7759 8641 
17481 9419 14312 8075 437 14313 11915 8227 5251 
8698 5331 8761 5240 10308 13024 6692 16394 13515 
1738 16843 17130 14595 8638 2065 10826 12246 15096 
5959 12410 6460 7699 12052 10251 2836 11973 17379 
6829 13146 12029 9084 13257 12315 9193 298 3250 
4635 14334 7406 10682 7272 12019 7106 5634 14106 
183 14125 17036 12530 17739 4490 4744 16885 4637 
11126 8941 14650 6944 2698 2202 5649 9947 12245 
15727 12023 11388 17847 2611 2281 17174 13685 10618 
4224 17425 8631 16339 9864 10857 9638 8032 7134 
10464 9130 11971 5026 11213 7947 11356 11316 16720 
5505 1413 14082 10498 6056 11460 7589 14055 9440 
3799 3527 3523 14117 736 8273 17168 2028 1457 
6026 16223 2704 14873 15462 14551 4604 38 7145 
10549 6085 16956 6364 1176 7046 16025 8794 10622 
10670 16553 7670 7399 8526 4965 873 11972 4671 
8378 9092 6550 749 11218 14616 12332 13022 10795 
7213 3467 4183 15704 7836 13787 10673 10418 8989 
8061 7477 11425 1140 1551 14134 4600 11695 2787 
4873 9868 4677 111 14000 14316 9875 10319 11429 
5486 12227 13481 2613 9578 9567 5413 304 6555 
9103 13713 5236 15008 12633 10645 8585 3396 9359 
10773 2171 10802 6915 3480 13863 17353 7124 7765 
15246 9851 16923 14232 13778 10346 7724 9882 16485 
3514 2992 4267 11725 17104 13076 721 14839 6357 
1868 10158 10079 5564 13795 8131 9331 13087 11529 
12454 17013 9034 6704 7599 3505 497 16567 3973 
1766 16717 9499 6039 16199 4327 10942 9297 3796 
10431 8715 6840 10987 17338 11672 12179 16611 160 
261 11223 10592 856 17331 15766 13997 14918 12942 
10931 13467 11936 647 8381 13557 17708 15885 16907 
14964 1990 7437 10190 3620 15994 14453 3431 16871 
12753 6163 2063 17148 4792 777 14351 14124 11093 
6656 5415 1617 156 13129 7469 7804 11568 1326 
13398 9233 15300 8969 15297 13463 10463 7872 15083 
9286 6070 1287 10441 10291 2038 1315 4880 4711 
3933 16542 7581 4087 4631 13418 15007 11480 12771 
14942 4648 15165 7157 2444 17817 5641 7112 687 
10924 8928 5740 13168 5131 4821 17053 13054 13110 
1510 9921 11951 9534 4368 10334 17456 7309 3517 
5033 236 13560 4077 1138 15432 8313 797 3623 
1297 11566 4159 7345 3984 4539 16224 13574 3800 
9137 14826 12311 15192 234 16052 13347 13702 6244 
1539 16558 7958 13611 4104 14549 2154 3992 12723 
10801 16293 3091 6941 11452 5565 584 4303 12195 
17619 11367 13217 6535 1997 4342 17105 15586 5344 
2531 17747 14519 3446 2337 1528 10140 907 16576 
1042 825 6973 2044 7037 582 12373 13408 5864 
13678 5441 2382 3108 6153 7319 12450 4917 6786 
9148 12212 15904 9519 4598 14221 15501 275 10778 
2173 5983 8701 16802 2632 1937 7226 3072 9910 
1278 7875 12331 7525 17567 11346 17756 13569 8553 
3236 723 12472 853 9200 11617 14094 11527 8717 
8502 13219 11896 8492 6740 16559 12897 1 6923 
1475 16004 16249 13049 15052 11587 3157 7792 6459 
16453 3560 8318 17389 16213 15013 14664 9037 7574 
14831 3547 7938 9002 12104 2255 4688 7394 7419 
312 12480 6038 17288 4275 1250 11930 5279 4970 
2600 2498 14699 840 5738 914 13937 5069 2867 
4126 14302 6850 10971 14479 14513 13653 5453 10027 
6711 11191 8942 10979 1379 6374 11447 5880 11504 
9133 6609 5845 9647 11732 2381 11184 14486 1665 
6542 3773 7373 16617 1235 15882 7039 11195 9951 
7613 16148 13203 10609 10725 1036 17381 3242 546 
15089 9329 10955 14147 9016 10467 3204 9348 12648 
9650 7208 3472 14060 16818 8826 9613 673 5330 
7979 902 14122 5829 3051 17410 7038 14185 9709 
6670 15826 14983 15722 2340 5391 11999 4131 17601 
9862 16566 10039 3721 9318 9898 7137 15624 1869 
9400 6069 7323 15523 6551 282 4751 8527 17076 
545 15245 9115 17228 9188 17776 13062 9592 17727 
4888 12708 4111 5316 15960 11692 15410 12953 14517 
16040 8120 1188 12218 15970 12602 10833 9565 14380 
16998 5570 3332 12248 12537 6093 663 13993 4266 
16630 13763 8059 8906 7306 632 9750 7578 3292 
612 15229 3380 6004 9394 5709 7889 17714 956 
9515 15662 155 7631 4799 6924 3977 13284 16277 
6892 13537 14175 7593 2832 1239 10518 9493 10042 
2645 16415 12155 8751 4463 12855 16698 10297 2085 
2051 15645 17349 13423 8716 7690 14333 11795 13405 
10440 15383 7315 15320 15554 15336 4128 11920 11034 
2220 14977 11578 2492 2486 15781 3356 6238 14187 
9214 8525 5653 10141 7408 16115 13929 11086 13639 
8703 15166 14731 4909 2450 1720 11895 6284 7654 
10510 14349 12922 4307 14875 11535 11538 14093 2993 
781 13509 12722 15087 4017 2414 6131 2945 762 
268 11894 8324 10910 11134 4897 2014 13342 14842 