# vtk DataFile Version 5.1
Generated by LIGGGHTS
ASCII
DATASET POLYDATA
POINTS 6102 float
-0.0126937 0.0271821 0.018567 -0.0124321 0.0273028 0.0122857 -0.0165492 0.0250225 0.0162468 
-0.00809412 -0.0211818 0.00372368 -0.0122417 -0.0232057 0.00372368 -0.0123473 -0.0194528 0.00372368 
-0.0289079 0.00802077 0.0137396 -0.0273354 0.0123603 0.0120413 -0.0288894 0.00808717 0.0079903 
0.00844368 0.024816 0.00372368 0.0122843 0.0228125 0.00372368 0.00935195 0.0210524 0.00372368 
-0.0295908 -0.00493784 0.00372368 -0.0288725 -0.00814748 0.00858375 -0.0299026 -0.00241541 0.00776079 
-0.0122417 -0.0232057 0.00372368 -0.0159919 -0.0205249 0.00372368 -0.0123473 -0.0194528 0.00372368 
-0.0288894 0.00808717 0.0079903 -0.0273354 0.0123603 0.0120413 -0.0273757 0.0122708 0.00788605 
-0.0201231 0.02225 0.0128537 -0.0184264 0.0236742 0.0080134 -0.022056 0.0203355 0.00802677 
0.0120283 0.0274831 0.013095 0.0142805 0.0263831 0.00801425 0.00977164 0.028364 0.00800666 
0.0184264 0.0236742 0.0080134 0.0192678 0.0229946 0.0137266 0.0222062 0.0201714 0.0111275 
0.00475217 0.0262618 0.00372368 0.00844368 0.024816 0.00372368 0.0049706 0.0224562 0.00372368 
-0.0119911 -0.0274993 0.0129878 -0.0142657 -0.0263911 0.00801434 -0.00974487 -0.0283732 0.00801415 
0.000157307 -0.0299996 0.0110382 -0.00385588 -0.0297512 0.013628 -0.00493784 -0.0295908 0.0080134 
-0.00736456 0.029082 0.00372368 -0.00480389 0.0254027 0.00372368 -0.00875739 0.0254178 0.00372368 
0.0131895 -0.0269451 0.0135859 0.00963764 -0.0284098 0.010842 0.0142784 -0.0263842 0.0080134 
0.00756968 -0.0163985 0.00372368 0.0120396 -0.017547 0.00372368 0.00891473 -0.0202971 0.00372368 
-9.41575e-05 -0.0230183 0.00372368 0.00371169 -0.0256228 0.00372368 -0.000122576 -0.0268323 0.00372368 
0.0168138 -0.0248454 0.0160575 0.0201617 -0.022215 0.0122148 0.0201941 -0.0221856 0.0183604 
-0.00853274 0.028761 0.0162184 -0.0124321 0.0273028 0.0122857 -0.0126937 0.0271821 0.018567 
0.00371169 -0.0256228 0.00372368 0.00247738 -0.0298975 0.00372368 -0.000122576 -0.0268323 0.00372368 
-0.0192177 -0.0230365 0.0136558 -0.0220848 -0.0203042 0.0110766 -0.0184264 -0.0236742 0.0080134 
-0.0122417 -0.0232057 0.00372368 -0.00809412 -0.0211818 0.00372368 -0.00884013 -0.0252871 0.00372368 
-0.0120509 -0.0274732 0.00372368 -0.0122417 -0.0232057 0.00372368 -0.00884013 -0.0252871 0.00372368 
0.0201941 -0.0221856 0.0183604 0.0201617 -0.022215 0.0122148 0.0231666 -0.0190606 0.01603 
-0.00480389 0.0254027 0.00372368 -0.0076627 0.0219387 0.00372368 -0.00875739 0.0254178 0.00372368 
0.0222062 0.0201714 0.0111275 0.0220717 0.0203184 0.00711047 0.0184264 0.0236742 0.0080134 
-0.0263842 0.0142784 0.00372368 -0.0220227 0.0136092 0.00372368 -0.024489 0.0105266 0.00372368 
-0.0124321 0.0273028 0.0122857 -0.0164084 0.025115 0.0117569 -0.0165492 0.0250225 0.0162468 
-0.022056 0.0203355 0.00802677 -0.0228381 0.019453 0.0122199 -0.0201231 0.02225 0.0128537 
-0.0288725 -0.00814748 0.00858375 -0.0296896 -0.00430411 0.0117468 -0.0299026 -0.00241541 0.00776079 
-0.0283745 -0.00974098 0.00372368 -0.0288725 -0.00814748 0.00858375 -0.0295908 -0.00493784 0.00372368 
0.0123194 -0.0226331 0.00372368 0.00814478 -0.0242894 0.00372368 0.00891473 -0.0202971 0.00372368 
0.0113385 0.0181284 0.00372368 0.00649523 0.0189422 0.00372368 0.00935195 0.0210524 0.00372368 
0.0283745 0.00974098 0.00372368 0.0295908 0.00493784 0.00372368 0.0262923 0.00664646 0.00372368 
-0.0120509 0.0274732 0.00372368 -0.00736456 0.029082 0.00372368 -0.00875739 0.0254178 0.00372368 
0.0283745 0.00974098 0.00372368 0.0289467 0.00787963 0.0083766 0.0295908 0.00493784 0.00372368 
-0.00493784 -0.0295908 0.0080134 1.0107e-16 -0.03 0.00704273 0.000157307 -0.0299996 0.0110382 
0.00977164 0.028364 0.00800666 0.00701649 0.0291679 0.0118383 0.0120283 0.0274831 0.013095 
0.00247738 -0.0298975 0.00372368 -0.00247738 -0.0298975 0.00372368 -0.000122576 -0.0268323 0.00372368 
-0.00987953 -0.0164218 0.00372368 -0.00809412 -0.0211818 0.00372368 -0.0123473 -0.0194528 0.00372368 
0.00649523 0.0189422 0.00372368 0.0049706 0.0224562 0.00372368 0.00935195 0.0210524 0.00372368 
-0.025115 0.0164084 0.0080134 -0.0273354 0.0123603 0.0120413 -0.0253407 0.0160578 0.0138104 
0.00963764 -0.0284098 0.010842 0.00974098 -0.0283745 0.00688146 0.0142784 -0.0263842 0.0080134 
0.0120283 0.0274831 0.013095 0.0157587 0.0255277 0.0121769 0.0142805 0.0263831 0.00801425 
-0.0220848 -0.0203042 0.0110766 -0.0249482 -0.016661 0.0134522 -0.0250481 -0.0165103 0.00787589 
-0.0119911 -0.0274993 0.0129878 -0.0157145 -0.0255549 0.0120458 -0.0142657 -0.0263911 0.00801434 
0.00649523 0.0189422 0.00372368 0.00170261 0.0199253 0.00372368 0.0049706 0.0224562 0.00372368 
0.0289467 0.00787963 0.0083766 0.0297216 0.00407725 0.00768521 0.0295908 0.00493784 0.00372368 
-0.00461575 0.0296428 0.0137833 -0.000625354 0.0299935 0.0121126 -0.00490727 0.0295959 0.00814892 
0.0250538 0.0165017 0.00784534 0.0250351 0.0165301 0.013559 0.0272354 0.0125791 0.0112398 
-0.0220848 -0.0203042 0.0110766 -0.0220717 -0.0203184 0.00704838 -0.0184264 -0.0236742 0.0080134 
-0.0209022 0.00905108 0.00372368 -0.0247613 0.00595337 0.00372368 -0.024489 0.0105266 0.00372368 
0.0228419 0.00568166 0.00372368 0.0233864 0.0102056 0.00372368 0.0262923 0.00664646 0.00372368 
0.0250538 0.0165017 0.00784534 0.0222062 0.0201714 0.0111275 0.0250351 0.0165301 0.013559 
-0.00974487 -0.0283732 0.00801415 -0.00801402 -0.0289098 0.0120244 -0.0119911 -0.0274993 0.0129878 
-0.0201231 0.02225 0.0128537 -0.0164084 0.025115 0.0117569 -0.0184264 0.0236742 0.0080134 
-0.0249482 -0.016661 0.0134522 -0.0271708 -0.012718 0.0110803 -0.0250481 -0.0165103 0.00787589 
0.00489992 -0.0295971 0.0133315 0.000157307 -0.0299996 0.0110382 0.00493784 -0.0295908 0.0080134 
0.0254585 0.00211549 0.00372368 0.0228419 0.00568166 0.00372368 0.0262923 0.00664646 0.00372368 
0.00493784 -0.0295908 0.0080134 0.00963764 -0.0284098 0.010842 0.00489992 -0.0295971 0.0133315 
-0.03 -6.29394e-17 0.00372368 -0.0295908 0.00493784 0.00372368 -0.0269306 0.00213112 0.00372368 
-0.0273757 0.0122708 0.00788605 -0.0273354 0.0123603 0.0120413 -0.025115 0.0164084 0.0080134 
-0.0289079 0.00802077 0.0137396 -0.0288894 0.00808717 0.0079903 -0.0297561 0.00381799 0.0112549 
0.0049706 0.0224562 0.00372368 0.00844368 0.024816 0.00372368 0.00935195 0.0210524 0.00372368 
0.0157653 0.0203057 0.00372368 0.0190979 0.0173202 0.00372368 0.0151607 0.0162574 0.00372368 
0.0164084 0.025115 0.00372368 0.0157653 0.0203057 0.00372368 0.0122843 0.0228125 0.00372368 
-0.0230511 0.00103609 0.00372368 -0.026125 -0.00201284 0.00372368 -0.0269306 0.00213112 0.00372368 
-0.0253407 0.0160578 0.0138104 -0.0228381 0.019453 0.0122199 -0.025115 0.0164084 0.0080134 
0.0184264 0.0236742 0.0080134 0.0157587 0.0255277 0.0121769 0.0192678 0.0229946 0.0137266 
0.0168138 -0.0248454 0.0160575 0.0165149 -0.0250451 0.0116996 0.0201617 -0.022215 0.0122148 
-0.00490727 0.0295959 0.00814892 -0.000625354 0.0299935 0.0121126 -1.49662e-14 0.03 0.0080134 
-0.0076627 0.0219387 0.00372368 -0.0119049 0.0231923 0.00372368 -0.00875739 0.0254178 0.00372368 
-0.00490727 0.0295959 0.00814892 -0.00817694 0.0288641 0.0118199 -0.00461575 0.0296428 0.0137833 
0.0129972 -0.0046275 0.00372368 0.0164569 -0.00110475 0.00372368 0.0170352 -0.00513945 0.00372368 
-0.0263842 -0.0142784 0.00372368 -0.0283745 -0.00974098 0.00372368 -0.0244738 -0.0106783 0.00372368 
0.0288726 -0.00814691 0.0237607 0.0289195 -0.007979 0.0189527 0.0297176 -0.00410653 0.021341 
-0.00983278 0.0143111 0.00372368 -0.0143728 0.0156392 0.00372368 -0.0110301 0.0188699 0.00372368 
0.0295896 -0.00494546 0.0115477 0.0285006 -0.00936554 0.0118068 0.029082 -0.00736456 0.0080134 
0.0131895 -0.0269451 0.0135859 0.00919592 -0.0285558 0.0159589 0.00963764 -0.0284098 0.010842 
0.00963764 -0.0284098 0.010842 0.00919592 -0.0285558 0.0159589 0.00489992 -0.0295971 0.0133315 
-0.0252385 -0.00663486 0.00372368 -0.0295908 -0.00493784 0.00372368 -0.026125 -0.00201284 0.00372368 
-0.0283745 0.00974098 0.00372368 -0.0263842 0.0142784 0.00372368 -0.024489 0.0105266 0.00372368 
-0.00528641 -0.0174878 0.00372368 -0.000595274 -0.0186108 0.00372368 -0.0036895 -0.0211171 0.00372368 
0.0124538 0.0129968 0.00372368 0.0113385 0.0181284 0.00372368 0.0151607 0.0162574 0.00372368 
-0.0184264 -0.0236742 0.0080134 -0.0157145 -0.0255549 0.0120458 -0.0192177 -0.0230365 0.0136558 
-0.0186531 -0.000485601 0.00372368 -0.0175293 -0.00534917 0.00372368 -0.0219391 -0.00367156 0.00372368 
-0.00385588 -0.0297512 0.013628 -0.00801402 -0.0289098 0.0120244 -0.00493784 -0.0295908 0.0080134 
-0.00736456 -0.029082 0.00372368 -0.0120509 -0.0274732 0.00372368 -0.00884013 -0.0252871 0.00372368 
-0.0252385 -0.00663486 0.00372368 -0.0210329 -0.00857697 0.00372368 -0.0244738 -0.0106783 0.00372368 
-0.0210329 -0.00857697 0.00372368 -0.0210811 -0.013826 0.00372368 -0.0244738 -0.0106783 0.00372368 
-0.026125 -0.00201284 0.00372368 -0.03 -6.29394e-17 0.00372368 -0.0269306 0.00213112 0.00372368 
0.0159555 -0.0144888 0.00372368 0.015062 -0.00917333 0.00372368 0.0184672 -0.0112631 0.00372368 
-0.027085 -0.0128997 0.0211031 -0.0271198 -0.0128264 0.0160735 -0.0249489 -0.0166599 0.0185869 
-0.0120509 -0.0274732 0.00372368 -0.0164084 -0.025115 0.00372368 -0.0122417 -0.0232057 0.00372368 
-0.0249482 -0.016661 0.0134522 -0.0271198 -0.0128264 0.0160735 -0.0271708 -0.012718 0.0110803 
-0.0250481 -0.0165103 0.00787589 -0.0220717 -0.0203184 0.00704838 -0.0220848 -0.0203042 0.0110766 
-0.0119049 0.0231923 0.00372368 -0.0120509 0.0274732 0.00372368 -0.00875739 0.0254178 0.00372368 
0.0142784 -0.0263842 0.0080134 0.0165149 -0.0250451 0.0116996 0.0131895 -0.0269451 0.0135859 
-0.00247738 -0.0298975 0.00372368 -0.00437754 -0.0252867 0.00372368 -0.000122576 -0.0268323 0.00372368 
0.0295908 0.00493784 0.00372368 0.0254585 0.00211549 0.00372368 0.0262923 0.00664646 0.00372368 
0.0233864 0.0102056 0.00372368 0.0283745 0.00974098 0.00372368 0.0262923 0.00664646 0.00372368 
-0.0249489 -0.0166599 0.0185869 -0.0271198 -0.0128264 0.0160735 -0.0249482 -0.016661 0.0134522 
[...]
CELL_DATA 2034
FIELD FieldData 2
normal_stress_average 1 2034 double
403.26709559 828.69141841 274.1950789 781.47631053 421.97365081 976.40483998 99.388656971 543.31141301 448.37199085 
199.00421815 938.4075108 394.65416197 471.46489688 508.17615212 107.49422972 437.69973033 867.9451393 221.10784895 
163.69455988 224.15818204 467.99290535 734.68288074 663.49749936 441.89627193 273.52729739 283.75127304 245.84411816 
236.1979767 158.49092421 291.74334983 239.25358281 706.99662554 798.25184158 254.42837431 295.4286358 428.9900951 
256.01064993 431.08888305 306.20508033 774.53209101 984.60086182 268.63241558 482.31455479 386.71395109 287.51354958 
91.685617691 244.06280084 269.42160799 249.04421467 544.48033263 409.12861362 737.93544996 797.00332494 287.97955183 
362.51590102 274.16386869 451.52467586 276.27357986 1002.5362417 353.64553167 109.13190939 533.10884986 470.10198736 
323.46843218 251.20488693 385.06589123 738.39865089 303.99529074 242.48348395 431.46024033 653.89436716 730.42025398 
238.6320791 943.81075329 540.83892159 134.91190691 528.44572133 411.81704974 289.8949303 429.60565495 477.31336656 
427.19328107 573.39101743 809.31370339 200.31623553 170.15675334 347.00891174 291.35616592 361.16737924 300.02052233 
371.649277 425.77522079 420.41830706 271.53580224 293.33728763 447.26964296 248.14627255 202.51099211 436.68527139 
497.16896755 248.4862469 276.60445885 301.81535017 463.87512553 261.81489781 531.46497716 270.86374769 257.9635687 
308.18886307 517.3600034 751.9366433 409.35919372 241.4756355 469.20183592 285.50714613 392.80686807 353.27411569 
204.22809062 345.42934672 239.61022212 358.45686927 251.43685589 192.59962981 511.68761137 340.4267797 929.11795911 
342.16957589 271.65307369 351.72013319 355.58897392 428.17839906 275.30344997 422.29415874 155.85676935 373.97009033 
645.45490986 140.94642743 317.87114158 346.21131459 141.54751253 427.20442446 397.05557626 275.06949624 220.63228971 
305.10787505 503.52760632 301.04610461 282.69426598 163.19035115 268.54686574 333.31688568 332.8393759 288.89347783 
512.32296914 533.23690975 86.235479963 245.22363886 263.08152241 449.57262196 559.87322364 847.6927652 154.97414888 
270.73523607 676.8118814 153.31026346 137.38786036 581.0291766 978.8787701 102.3272412 325.88107762 235.83402472 
441.46797122 664.41437909 661.80400118 481.30339755 250.54905002 469.15053593 261.11244228 349.71821259 321.05623397 
885.3246623 686.07173427 347.86450011 315.23830635 154.49546071 304.40955407 471.7180492 682.46411942 161.4726415 
275.98981507 199.84661426 273.33507873 218.13926873 294.63301507 375.29909888 182.01592818 284.49440923 306.1894241 
371.29663145 608.81351758 347.46364608 321.01475265 1541.2747267 868.87864295 356.31517978 467.59147709 491.34620045 
289.57988705 813.53450287 150.45842163 1397.469716 637.6215159 474.74262869 666.64019407 498.36197087 951.57847221 
653.69458945 130.5317895 231.37171902 432.07462106 147.48885537 717.5475809 144.45607675 741.35834434 286.57262186 
528.60646803 191.86141946 823.27409066 847.86981749 448.68910014 219.66834662 484.3752569 465.70290119 513.18746282 
926.59144206 266.97981087 709.370774 814.09222528 240.3275853 177.23501726 277.69217752 1024.5216892 851.37513877 
167.23389548 192.51175437 371.43396173 112.06803964 359.38296419 340.15120116 232.37045583 342.9355434 124.24978068 
288.30465692 218.64984048 849.40489872 278.69351557 920.02857599 546.11821182 735.22299523 230.86753244 293.53041595 
250.59270291 226.01554934 421.71114032 770.15997071 222.09639958 602.59134141 500.89968057 323.30028372 602.42715622 
260.56184508 647.27775995 568.5233426 383.92945944 856.00087653 309.82849875 435.55726298 369.04377638 840.84273912 
434.70456763 437.08604681 491.53866368 743.13103724 565.62021385 348.40997416 353.77474634 391.62146077 240.332644 
174.8441957 368.57576723 870.71005437 416.28960267 364.0997963 530.94600939 685.17882523 301.61519434 602.18580638 
354.45873707 605.82878163 111.74410591 187.31544634 317.8957134 274.13406257 355.72490756 632.83890982 575.50334 
1031.5634698 387.62204392 387.21942373 307.70416882 799.45320459 746.40528974 473.0237975 597.04707818 149.16847089 
1168.120878 839.81826273 983.97082539 687.51476317 144.570547 811.33138447 552.29726229 651.13912336 445.35150883 
282.0652114 985.05810578 589.22280251 330.55081437 322.10511343 859.25726617 600.90287805 780.8507198 776.47542351 
388.75974653 323.16709711 856.29455029 151.35780208 590.04970106 530.99488707 493.3516183 146.63072713 711.74022032 
800.68695963 110.78536466 168.42809689 185.17761887 676.23963551 774.08550838 746.28632149 351.68572947 268.38935582 
339.17838632 1024.2044164 360.21457585 265.60133759 301.18469658 904.1569313 459.38450484 757.67660964 349.70452241 
808.21877946 316.49087063 134.46803894 663.4389747 199.79935319 272.1216319 216.97794318 290.97839632 778.13933129 
508.48275775 305.00939722 274.55566455 346.21829334 243.07264115 337.24658777 580.62721231 466.52519528 494.583467 
721.26005268 364.23144245 292.94167228 226.47249051 395.36806582 461.70745178 433.06947309 302.47450079 606.50207265 
332.23946183 326.21236195 507.43868097 242.56779298 284.51296032 191.47978902 724.08202817 216.73588941 570.17636429 
521.64862556 342.68173881 180.65787981 351.01048129 172.96474095 305.24468941 230.55995318 270.98707337 137.32974238 
449.32180107 376.45536611 276.28879831 456.3897549 966.84776237 457.65820183 482.47852387 535.99896742 578.9760676 
653.21770624 416.171258 120.91626954 545.52170573 543.72940843 1081.6936838 182.81689087 344.88469524 772.73409475 
799.38650122 823.24398296 766.10213125 297.09068684 275.38717719 606.20026003 510.88757489 427.508096 181.09437339 
434.23637317 722.57091346 661.28283022 344.20164178 470.38054192 495.14137648 1100.8869643 225.25603354 202.58272276 
96.379092271 131.86331666 1108.7154556 450.52523876 253.61678079 827.05544302 101.11093482 279.20676305 652.31317918 
79.882809658 457.38265071 671.39836793 347.85048363 484.22200135 467.07202613 169.18074872 570.12617063 964.55635743 
360.31007435 708.98964841 751.73689512 411.23935274 848.78180025 522.63871582 689.53351004 413.61328777 97.235325239 
512.59609033 435.8463737 584.91031139 916.20624151 268.1624384 1273.3028561 292.05606652 190.00636906 638.46647657 
1054.1498322 372.43845194 352.69115987 196.57468741 756.85359626 1060.12318 595.25715144 540.95895501 812.15557292 
968.59247401 638.07635313 496.61005096 634.59100876 275.24690091 282.89782815 823.4394456 878.78606857 427.12602736 
582.89442868 396.13991002 173.87510415 983.63335752 653.07278075 405.35202201 533.75025151 313.93428814 374.70251357 
325.78648183 275.94452134 463.18373941 288.46466419 126.20698044 187.23049173 251.14031247 159.1033377 194.00856813 
91.279429812 327.44097706 331.27265285 139.28978612 623.08443961 474.59487842 213.07169518 261.96904354 189.76926072 
793.33097509 182.06549389 123.48454745 173.56017232 197.92876311 323.16553496 745.27562577 169.52852158 161.25517062 
117.22690889 312.73747486 314.7632526 151.07903996 318.45003299 471.55279632 202.57272822 371.97890821 585.22846782 
526.6468746 161.13168612 160.82231906 477.46862888 456.7917441 180.95643057 224.08229949 201.18105455 480.32980876 
340.22776486 431.10258242 192.62682476 344.09251326 205.65534353 421.56562472 510.96439446 394.07136032 389.08248606 
287.39859699 275.00103367 298.61242091 348.11286555 168.29486357 13.568289913 706.03722772 24.300898389 379.7954999 
129.84088718 233.03682648 597.26722955 362.88639709 521.9149355 298.05554466 348.69206238 611.27197166 529.13885627 
151.95573335 187.99571949 396.24848004 405.84314121 798.76838788 442.62071098 372.48267131 374.14632032 110.03615271 
386.70114692 241.77473958 255.78050876 202.98137678 185.32652073 304.17677485 136.8378489 186.91588051 396.40399348 
597.0723123 133.2731127 209.7332252 178.29888723 589.60765711 289.35504303 209.02275067 282.22613953 201.71335515 
603.58183347 310.42146101 442.24411319 362.89770956 251.25189741 229.86754759 218.4502043 520.58134668 333.7107971 
268.19782717 474.04321576 270.24203644 355.23477303 129.60421183 271.96729772 382.10788944 363.76061361 35.244087355 
454.72207867 201.85778467 369.91914118 276.72246286 146.22138511 378.1365758 513.82776421 306.63085974 225.52677784 
143.8938884 258.4905727 401.16996399 164.16520779 295.93570789 215.85904807 249.50658418 200.32340312 113.25821193 
296.19731541 166.67842728 267.06603256 305.86667798 322.06716463 363.57052687 121.86693868 577.43496742 44.827703095 
368.85633253 96.43406663 306.22508018 369.87215123 409.71715847 455.69432965 205.34308066 255.52308823 350.54947073 
289.78285119 504.42702151 264.61744468 155.58135306 396.38449078 332.93733837 408.71328052 107.59641536 278.11237355 
438.28663735 587.79836773 588.87883321 350.412238 104.17012158 275.49718456 355.04679153 233.1242398 118.26682486 
356.14281948 207.49996356 264.94731276 193.06072665 316.7172316 273.47341337 251.13258751 440.64291555 194.09467054 
280.01933924 303.48892922 145.01434204 72.05940489 124.33972197 59.512913747 79.835014842 249.68593963 241.99405833 
258.72227882 131.31974323 479.30133951 252.80241504 251.18270519 74.705882496 272.55621279 291.96356157 88.572604199 
96.174947761 208.40599778 154.58169462 315.96193623 145.13110874 202.63936692 217.93898012 441.92036597 232.08791439 
154.87089411 279.97567064 135.06811203 261.45136087 220.60330009 150.11314185 224.67369035 208.37188753 230.84191405 
145.43025846 415.09957801 122.25266365 0 94.068802108 0 301.49208591 0 412.77501595 
264.52992641 113.70267432 310.65400252 0 211.82726319 151.6652306 0 250.30393944 0 
0 135.82267087 195.06150292 0 174.5607276 0 0 352.34977414 0 
425.03414549 0 212.44381025 169.84814232 186.39764092 168.96547452 0 -0 0 
0 169.3552974 253.67556886 305.55281053 0 0 0 181.73984744 328.44536185 
82.409566868 231.25990834 240.15365363 0 345.34698269 129.16655478 140.40481947 218.87141007 0 
0 352.28945266 375.58610617 158.58726038 63.970786043 275.40255022 0 323.57791221 0 
49.900883082 281.23388143 0 0 0 243.38599861 348.92224455 284.65315321 342.74481945 
341.5384123 0 185.81262212 1.5812323303 59.456475806 246.59844301 61.267853093 0 69.079483596 
85.872997158 115.73266456 148.19293086 15.26496732 0 0 0 196.07083855 179.88430531 
204.41817649 0 0 0.86496362687 0 75.138896879 -0 -0 132.20687868 
102.58810694 0 129.42561719 161.53730506 0 45.684400261 98.518158289 0.7607288032 8.4066081316 
148.39274829 157.29669754 0 20.062969689 0 0 81.396936842 16.829989654 138.59643388 
344.81787923 191.98409131 0 0 0.94452540704 0.50326564723 0 0 100.32939207 
11.14474418 167.76552586 0 0 0 0 112.66179238 5.5092182918 146.01019268 
0 0 102.805361 145.39670916 143.00082245 2.5268451691 0 0 43.761484707 
277.702089 82.514117108 124.90721928 282.24124282 159.30722937 96.242643052 0 0 0 
66.942536663 63.285664185 239.93820035 124.48504633 146.48097929 1.7046339724 98.650713496 121.47691029 340.03203048 
95.536869787 341.98402052 392.177003 159.56434747 145.27170349 148.97053068 205.6458329 127.42578919 66.625171333 
44.326446731 86.390783454 179.05806731 188.55802492 143.43221547 199.64528392 10.513219062 0 32.048060409 
180.07765131 1.4367114859 447.69962605 216.62501445 178.02694382 0 129.23442759 41.517983755 0 
151.23318964 139.23375345 10.466078566 154.41486367 202.28408252 89.690912262 22.469445436 57.135479678 290.39459979 
74.513221537 179.87712382 252.82320976 278.56322209 0 0 146.3625498 112.27804405 151.60249708 
0 46.761391391 220.44640537 41.334480855 49.343510834 227.85720456 49.652132061 6.3496535958 103.50649247 
306.55311885 173.2126443 86.581737915 242.39784439 80.677428388 216.97565391 73.608205467 287.52793469 216.42315204 
254.32235996 254.27247336 28.691260847 31.967279335 173.51117532 85.813291408 135.86775823 351.20516439 18.195101123 
120.36557039 52.929426003 181.19003987 0 78.215536556 367.52214939 2.2520719258 8.5648920645 243.68523247 
149.14713805 29.731691 0 87.642421877 0 205.98739082 225.6559675 33.387003471 265.67629361 
388.92061767 99.94238734 77.768700709 89.221906031 107.03906716 69.76811962 60.525671332 166.3470323 61.104196834 
247.04763121 128.84867122 256.16574986 192.42369772 13.580029452 4.079431531 -0 91.137303262 209.4928523 
50.94788906 186.237986 149.45493322 5.8324471198 120.97378521 27.119372607 94.761542917 202.94890729 78.051937959 
153.7223042 117.54244393 120.62961261 45.99348103 95.040092754 219.2996388 54.842084904 203.95784819 205.27983983 
63.717330454 76.733749566 174.53750713 171.72664182 401.57451828 135.07563323 46.102806576 61.285542895 125.35993105 
262.53820529 16.754095949 56.408010027 127.5525792 93.370094093 25.291212719 298.23644747 0 107.71989216 
316.7595531 149.68873339 0 197.50796601 328.36830865 140.44843749 286.61257616 13.623965039 346.31039742 
207.90421238 26.678636379 66.773919591 302.42355696 243.5192006 188.22138231 159.7965107 196.7314877 116.31262002 
35.317044519 22.081460833 165.23255647 62.115551634 187.97077486 123.68052964 67.135600098 166.4221429 0.13670178598 
103.83831722 196.21180935 195.40720506 7.3182735678 403.34473835 38.624114581 162.16784359 94.822161891 0 
172.15771059 206.77490176 54.473716026 95.080641723 77.667192374 18.316923666 163.05489135 163.90175189 274.86212846 
157.44971581 164.2353754 -0 205.68451093 237.37475966 -0 -0 298.34459922 374.84273795 
49.608163187 44.559092406 44.601021897 0 292.30909759 239.58623274 316.75064629 168.56440618 217.65507491 
176.93600572 14.885778731 135.6976355 0 278.82504725 125.57325141 91.481119967 356.35388574 131.57764962 
148.93571712 129.16682107 83.093039075 178.14303805 56.921355853 117.01519991 18.717557179 288.16410145 94.628627351 
388.61598086 220.82993875 269.31438546 89.759015491 12.478425809 178.67368165 39.474418283 0 124.84012187 
186.60879634 177.73658637 297.5183148 0 302.57639314 62.541385943 34.258819363 45.273874462 46.085574236 
63.244159638 132.20976051 11.991275908 55.388088535 12.606435496 139.54081111 77.110310414 121.39437678 263.59644362 
64.173203572 128.29740749 67.218963565 178.58970183 0 91.710753704 217.31069632 80.126805294 115.55703606 
146.15726468 22.429122804 157.3028397 67.144314459 152.45957943 54.440635996 103.1464855 12.845471838 146.37432431 
301.63714694 208.25518529 234.42852821 178.15833836 46.466618014 211.46275741 128.57695579 68.074839646 102.01009178 
219.81304242 71.626402 290.06681837 0 114.64865626 135.99616846 0 26.42264338 148.49151592 
139.79466558 37.132820934 -0 292.62457959 83.899758566 151.08332755 72.470426689 158.34992714 27.544043902 
6.5291061074 204.20950838 56.014704699 97.418404497 21.790973716 140.73666108 87.658072212 205.6073725 22.770210833 
186.04602084 65.169571578 -0 51.925533275 223.81617576 31.888092608 53.941904074 81.132860779 9.6346634604 
229.4194598 220.42800429 212.79419963 105.51056593 0.61952779329 196.59561003 263.73648371 28.459766451 116.32298703 
155.48272676 375.14524036 268.78250177 215.74037662 217.61559356 109.92266082 218.7298632 208.37651087 69.474194328 
4.3771861886 128.52957791 55.701419459 195.61866253 89.567446132 226.55213659 208.30821615 57.003552468 75.719552282 
140.0077941 47.563576598 237.70918229 131.30402707 153.77260847 160.10536568 0 62.434332365 41.620766508 
98.950188196 147.13083724 148.8568823 48.357165916 463.67590103 120.72261877 21.254197203 156.19241788 183.44030013 
-0 244.58426763 169.08064058 138.12230535 205.06881323 179.66986016 179.30800648 198.88610396 135.32876848 
117.16987935 57.54429061 69.477524158 327.2312402 74.976636731 51.073792788 313.25616525 32.888389338 73.065076482 
354.93281242 356.09069279 143.4937985 84.370127539 36.628182511 74.131469224 60.384822469 244.02381379 78.73307053 
115.57058374 0.24842615687 70.112248957 238.14346502 200.47714118 126.45002347 0 158.93895892 302.80994172 
243.96111159 61.488695973 116.72570218 114.93290345 67.987046918 228.39275257 160.81161011 0 256.3586667 
352.13230568 54.370297448 232.56617976 11.454046642 140.81493345 164.94306486 68.435158412 185.83282759 113.68127456 
180.52346536 260.08542322 248.91711971 158.25216538 200.99855186 202.72520062 172.24795066 162.63534883 226.96674049 
133.19789805 209.80073608 11.516205631 216.96589963 109.56288326 127.54667781 82.05144178 45.289964467 190.71135278 
96.694155707 22.245833825 237.61032621 112.58420881 31.101165967 97.953863986 183.90317407 60.457874479 254.64668417 
259.46995005 48.765681701 58.15345815 27.826099816 125.77917881 333.32500122 171.59104459 239.40749091 81.934939093 
90.755950624 245.28239117 141.72216803 183.83929387 232.6195652 0 184.90438293 73.392260323 256.39783332 
159.64379866 325.16735629 135.83238756 0.62375950777 76.920465949 -0 194.81671692 191.9840551 85.777092084 
206.05980325 291.18273458 53.149493442 243.09822983 260.97709635 106.76354056 72.339458415 72.721553912 128.65110035 
148.70600346 44.61096004 30.822009621 40.271455886 170.18978956 34.565689092 62.364384213 111.3290022 17.841910587 
183.63748585 134.52984895 90.676534267 64.867196155 291.77781178 163.5416964 193.37821735 157.06469163 270.99104347 
139.0707539 0 104.00603134 0 0 248.16419606 119.73342392 182.80305883 124.07342696 
200.50909755 148.59532012 135.66406982 0 0.74850971174 287.38339329 468.39005598 139.73365784 3.3526478569 
69.152600224 292.10905778 221.85375455 95.74310252 18.462014601 323.83851386 258.67224808 15.680940835 120.77245555 
220.20389755 146.25326287 0 144.81538374 169.17325414 109.67790316 239.45541139 19.027284112 0 
425.85425242 0 271.11454321 207.52279359 0 18.300058482 145.72678174 240.88972874 66.718694636 
346.64046429 19.031663437 78.442723875 217.86246699 0 125.15751811 237.94093738 0 157.28814384 
-0 96.668854037 81.37066274 191.407939 170.53685522 199.95914458 90.665619086 147.26832621 112.59694736 
181.20292014 201.28387183 -0 217.20103994 48.160344698 220.48867994 52.885165147 50.801458889 41.043008229 
73.395515102 170.56849764 322.32678937 0 46.739412434 117.54706454 0 108.94128038 -0 
123.59880075 0 108.56144559 116.88261562 0 129.64361098 0 66.572827975 158.51491461 
-0 164.36062101 -0 248.80794778 0 54.927479184 69.106904422 101.33245476 31.580787265 
205.99050128 95.604536702 0 -0 0 127.81185654 0 -0 0 
411.34562042 0 185.45371394 114.49063177 0 -0 286.47544856 238.23406576 0 
27.625781425 85.803558801 27.535522228 0 157.22051124 374.313967 54.807918718 118.99430029 110.69554445 
0 0 63.659383544 0 229.98167705 65.321138528 6.3237430978 14.911972245 -0 
225.39819982 0 167.91034862 67.116931416 120.43065495 243.23674333 195.7441721 17.245723111 16.857270066 
0 182.28827682 256.17537365 124.23746244 -0 0 283.849706 -0 93.602203791 
0 296.18708595 0 105.82964821 30.018913761 312.13002798 211.38362524 126.51012696 26.561166286 
337.77115095 204.51475862 253.46213212 18.055241987 236.62002345 53.825093166 0 20.281208008 231.08727937 
0 89.936358331 0 -0 0 285.92756236 248.83453475 0 105.39769225 
68.988231238 280.79707793 40.796813654 231.62334875 80.713724299 117.60214965 179.65060092 0 183.06657546 
0 104.51137917 131.03459191 267.41857033 104.22375023 125.0692873 158.06060037 313.53357248 118.36575025 
2.1227089387 187.68171598 -0 55.050420473 281.70709748 -0 297.55913173 195.88468603 0 
86.971329213 177.1586336 116.19776451 0 173.48386081 216.62036229 51.654907902 190.14991402 222.47853754 
194.88242964 108.62646924 0 0 111.86631683 141.0970287 0 243.62173186 219.1250144 
124.22815329 278.43883094 0 344.54331285 1.9508750256 225.76211253 41.280176585 107.3465247 69.431333091 
125.14171451 0 139.22197728 301.86775898 60.988440559 122.1256188 318.53834607 0 123.22167495 
0 104.81418391 231.9275281 168.39622463 -0 263.04829683 367.86195791 17.790357361 188.25651275 
167.73125685 150.62576247 180.97732573 -0 3.2728627963 88.697859536 43.041766854 89.984399932 316.30441994 
9.4113045359 78.117720019 146.97573417 304.81611736 45.708651464 209.56772951 80.445897688 128.98977474 20.360617358 
310.32822669 279.68550879 217.54843665 143.47018494 0 347.75994259 78.127958236 42.906574016 173.21791186 